<?xml version="1.0"?>
<VTKFile type="UnstructuredGrid" version="0.1" byte_order="LittleEndian">
  <UnstructuredGrid>
    <Piece NumberOfPoints="25" NumberOfCells="16">
      <Points>
        <DataArray type="Float64" NumberOfComponents="3" format="ascii">
          2.00000003e-01 -1.00000000e+00 0.00000000e+00 
2.77416945e-01 -9.03810143e-01 0.00000000e+00 
3.54833901e-01 -8.07620287e-01 0.00000000e+00 
4.32250828e-01 -7.11430371e-01 0.00000000e+00 
5.09667814e-01 -6.15240514e-01 0.00000000e+00 
2.10187048e-01 -8.78077924e-01 0.00000000e+00 
2.68249750e-01 -8.05935562e-01 0.00000000e+00 
3.26312453e-01 -7.33793139e-01 0.00000000e+00 
3.84375185e-01 -6.61650717e-01 0.00000000e+00 
4.42437887e-01 -5.89508355e-01 0.00000000e+00 
2.20374092e-01 -7.56155908e-01 0.00000000e+00 
2.59082556e-01 -7.08060980e-01 0.00000000e+00 
2.97791034e-01 -6.59965992e-01 0.00000000e+00 
3.36499512e-01 -6.11871064e-01 0.00000000e+00 
3.75207990e-01 -5.63776135e-01 0.00000000e+00 
2.30561137e-01 -6.34233832e-01 0.00000000e+00 
2.49915376e-01 -6.10186338e-01 0.00000000e+00 
2.69269615e-01 -5.86138904e-01 0.00000000e+00 
2.88623840e-01 -5.62091410e-01 0.00000000e+00 
3.07978094e-01 -5.38043976e-01 0.00000000e+00 
2.40748182e-01 -5.12311757e-01 0.00000000e+00 
2.40748182e-01 -5.12311757e-01 0.00000000e+00 
2.40748182e-01 -5.12311757e-01 0.00000000e+00 
2.40748182e-01 -5.12311757e-01 0.00000000e+00 
2.40748182e-01 -5.12311757e-01 0.00000000e+00 

        </DataArray>
      </Points>
      <Cells>
        <DataArray type="Int32" Name="connectivity" format="ascii">
0 1 6 5
5 6 11 10
10 11 16 15
15 16 21 20
1 2 7 6
6 7 12 11
11 12 17 16
16 17 22 21
2 3 8 7
7 8 13 12
12 13 18 17
17 18 23 22
3 4 9 8
8 9 14 13
13 14 19 18
18 19 24 23

        </DataArray>
        <DataArray type="Int32" Name="offsets" format="ascii">
4 8 12 16 20 24 28 32 36 40 44 48 52 56 60 64 
        </DataArray>
        <DataArray type="UInt8" Name="types" format="ascii">
9 9 9 9 9 9 9 9 9 9 9 9 9 9 9 9 
        </DataArray>
      </Cells>
      <PointData>
        <DataArray type="Float64" Name="u">
          -2.13188990e-02 3.87667509e-01 2.90440346e-01 -2.35892176e-01 -6.83362823e-01 4.51737025e-02 1.42215048e-01 -7.21003879e-02 -4.82478048e-01 -8.37296887e-01 5.20658787e-03 -9.40466047e-02 -3.07713233e-01 -5.77109122e-01 -8.16621409e-01 -1.27722898e-01 -2.38204917e-01 -3.62349767e-01 -4.89756573e-01 -6.08341418e-01 -2.49775078e-01 -2.49775078e-01 -2.49775078e-01 -2.49775078e-01 -2.49775078e-01 
        </DataArray>
      </PointData>
    </Piece>
    <Piece NumberOfPoints="25" NumberOfCells="16">
      <Points>
        <DataArray type="Float64" NumberOfComponents="3" format="ascii">
          -2.00000003e-01 -1.00000000e+00 0.00000000e+00 
-2.10187048e-01 -8.78077924e-01 0.00000000e+00 
-2.20374092e-01 -7.56155908e-01 0.00000000e+00 
-2.30561137e-01 -6.34233832e-01 0.00000000e+00 
-2.40748182e-01 -5.12311757e-01 0.00000000e+00 
-2.77416945e-01 -9.03810143e-01 0.00000000e+00 
-2.85057217e-01 -8.12368572e-01 0.00000000e+00 
-2.92697519e-01 -7.20927060e-01 0.00000000e+00 
-3.00337791e-01 -6.29485488e-01 0.00000000e+00 
-3.07978094e-01 -5.38043976e-01 0.00000000e+00 
-3.54833901e-01 -8.07620287e-01 0.00000000e+00 
-3.59927416e-01 -7.46659219e-01 0.00000000e+00 
-3.65020931e-01 -6.85698211e-01 0.00000000e+00 
-3.70114475e-01 -6.24737144e-01 0.00000000e+00 
-3.75207990e-01 -5.63776135e-01 0.00000000e+00 
-4.32250828e-01 -7.11430371e-01 0.00000000e+00 
-4.34797585e-01 -6.80949867e-01 0.00000000e+00 
-4.37344372e-01 -6.50469363e-01 0.00000000e+00 
-4.39891130e-01 -6.19988859e-01 0.00000000e+00 
-4.42437887e-01 -5.89508355e-01 0.00000000e+00 
-5.09667814e-01 -6.15240514e-01 0.00000000e+00 
-5.09667814e-01 -6.15240514e-01 0.00000000e+00 
-5.09667814e-01 -6.15240514e-01 0.00000000e+00 
-5.09667814e-01 -6.15240514e-01 0.00000000e+00 
-5.09667814e-01 -6.15240514e-01 0.00000000e+00 

        </DataArray>
      </Points>
      <Cells>
        <DataArray type="Int32" Name="connectivity" format="ascii">
0 1 6 5
5 6 11 10
10 11 16 15
15 16 21 20
1 2 7 6
6 7 12 11
11 12 17 16
16 17 22 21
2 3 8 7
7 8 13 12
12 13 18 17
17 18 23 22
3 4 9 8
8 9 14 13
13 14 19 18
18 19 24 23

        </DataArray>
        <DataArray type="Int32" Name="offsets" format="ascii">
4 8 12 16 20 24 28 32 36 40 44 48 52 56 60 64 
        </DataArray>
        <DataArray type="UInt8" Name="types" format="ascii">
9 9 9 9 9 9 9 9 9 9 9 9 9 9 9 9 
        </DataArray>
      </Cells>
      <PointData>
        <DataArray type="Float64" Name="u">
          -5.61690280e-01 -3.88791712e-01 -2.24071281e-02 2.82721324e-01 3.52469784e-01 -1.16907524e-01 -3.83517944e-02 9.59004472e-03 2.30116209e-03 -5.93271440e-02 1.15234472e-01 -9.42729329e-03 -1.53554934e-01 -2.99893434e-01 -4.26149134e-01 -1.75003147e-01 -3.13186201e-01 -4.43671156e-01 -5.61232524e-01 -6.60329899e-01 -7.24652064e-01 -7.24652064e-01 -7.24652064e-01 -7.24652064e-01 -7.24652064e-01 
        </DataArray>
      </PointData>
    </Piece>
    <Piece NumberOfPoints="25" NumberOfCells="16">
      <Points>
        <DataArray type="Float64" NumberOfComponents="3" format="ascii">
          -2.00000003e-01 -1.00000000e+00 0.00000000e+00 
-1.50000006e-01 -9.13731158e-01 0.00000000e+00 
-1.00000001e-01 -8.27462375e-01 0.00000000e+00 
-5.00000007e-02 -7.41193533e-01 0.00000000e+00 
-4.76585459e-13 -6.54924691e-01 0.00000000e+00 
-2.10187048e-01 -8.78077924e-01 0.00000000e+00 
-1.72687054e-01 -8.13376307e-01 0.00000000e+00 
-1.35187045e-01 -7.48674691e-01 0.00000000e+00 
-9.76870507e-02 -6.83973074e-01 0.00000000e+00 
-6.01870455e-02 -6.19271457e-01 0.00000000e+00 
-2.20374092e-01 -7.56155908e-01 0.00000000e+00 
-1.95374101e-01 -7.13021457e-01 0.00000000e+00 
-1.70374095e-01 -6.69887066e-01 0.00000000e+00 
-1.45374089e-01 -6.26752675e-01 0.00000000e+00 
-1.20374091e-01 -5.83618224e-01 0.00000000e+00 
-2.30561137e-01 -6.34233832e-01 0.00000000e+00 
-2.18061134e-01 -6.12666607e-01 0.00000000e+00 
-2.05561146e-01 -5.91099441e-01 0.00000000e+00 
-1.93061143e-01 -5.69532216e-01 0.00000000e+00 
-1.80561140e-01 -5.47964990e-01 0.00000000e+00 
-2.40748182e-01 -5.12311757e-01 0.00000000e+00 
-2.40748182e-01 -5.12311757e-01 0.00000000e+00 
-2.40748182e-01 -5.12311757e-01 0.00000000e+00 
-2.40748182e-01 -5.12311757e-01 0.00000000e+00 
-2.40748182e-01 -5.12311757e-01 0.00000000e+00 

        </DataArray>
      </Points>
      <Cells>
        <DataArray type="Int32" Name="connectivity" format="ascii">
0 1 6 5
5 6 11 10
10 11 16 15
15 16 21 20
1 2 7 6
6 7 12 11
11 12 17 16
16 17 22 21
2 3 8 7
7 8 13 12
12 13 18 17
17 18 23 22
3 4 9 8
8 9 14 13
13 14 19 18
18 19 24 23

        </DataArray>
        <DataArray type="Int32" Name="offsets" format="ascii">
4 8 12 16 20 24 28 32 36 40 44 48 52 56 60 64 
        </DataArray>
        <DataArray type="UInt8" Name="types" format="ascii">
9 9 9 9 9 9 9 9 9 9 9 9 9 9 9 9 
        </DataArray>
      </Cells>
      <PointData>
        <DataArray type="Float64" Name="u">
          -5.81473585e-01 -6.91872774e-01 -4.42702406e-01 5.45066843e-02 5.30732402e-01 -3.83138680e-01 -2.78364645e-01 4.66204102e-03 3.84079749e-01 7.28195629e-01 -2.16475444e-02 1.37102409e-01 3.48323846e-01 5.77447524e-01 7.80061001e-01 2.84800767e-01 3.78473567e-01 4.74555527e-01 5.67436248e-01 6.50890132e-01 3.44677164e-01 3.44677164e-01 3.44677164e-01 3.44677164e-01 3.44677164e-01 
        </DataArray>
      </PointData>
    </Piece>
    <Piece NumberOfPoints="25" NumberOfCells="16">
      <Points>
        <DataArray type="Float64" NumberOfComponents="3" format="ascii">
          2.00000003e-01 -1.00000000e+00 0.00000000e+00 
2.10187048e-01 -8.78077924e-01 0.00000000e+00 
2.20374092e-01 -7.56155908e-01 0.00000000e+00 
2.30561137e-01 -6.34233832e-01 0.00000000e+00 
2.40748182e-01 -5.12311757e-01 0.00000000e+00 
1.50000006e-01 -9.13731158e-01 0.00000000e+00 
1.57640278e-01 -8.22289646e-01 0.00000000e+00 
1.65280566e-01 -7.30848074e-01 0.00000000e+00 
1.72920853e-01 -6.39406562e-01 0.00000000e+00 
1.80561140e-01 -5.47964990e-01 0.00000000e+00 
1.00000001e-01 -8.27462375e-01 0.00000000e+00 
1.05093524e-01 -7.66501307e-01 0.00000000e+00 
1.10187046e-01 -7.05540299e-01 0.00000000e+00 
1.15280569e-01 -6.44579291e-01 0.00000000e+00 
1.20374091e-01 -5.83618224e-01 0.00000000e+00 
5.00000007e-02 -7.41193533e-01 0.00000000e+00 
5.25467619e-02 -7.10713029e-01 0.00000000e+00 
5.50935231e-02 -6.80232525e-01 0.00000000e+00 
5.76402843e-02 -6.49751961e-01 0.00000000e+00 
6.01870455e-02 -6.19271457e-01 0.00000000e+00 
-4.76604867e-13 -6.54924691e-01 0.00000000e+00 
-4.76617010e-13 -6.54924691e-01 0.00000000e+00 
-4.76618744e-13 -6.54924691e-01 0.00000000e+00 
-4.76610071e-13 -6.54924691e-01 0.00000000e+00 
-4.76590989e-13 -6.54924691e-01 0.00000000e+00 

        </DataArray>
      </Points>
      <Cells>
        <DataArray type="Int32" Name="connectivity" format="ascii">
0 1 6 5
5 6 11 10
10 11 16 15
15 16 21 20
1 2 7 6
6 7 12 11
11 12 17 16
16 17 22 21
2 3 8 7
7 8 13 12
12 13 18 17
17 18 23 22
3 4 9 8
8 9 14 13
13 14 19 18
18 19 24 23

        </DataArray>
        <DataArray type="Int32" Name="offsets" format="ascii">
4 8 12 16 20 24 28 32 36 40 44 48 52 56 60 64 
        </DataArray>
        <DataArray type="UInt8" Name="types" format="ascii">
9 9 9 9 9 9 9 9 9 9 9 9 9 9 9 9 
        </DataArray>
      </Cells>
      <PointData>
        <DataArray type="Float64" Name="u">
          -8.28243067e-03 4.76695508e-02 5.45912331e-03 -1.27308271e-01 -2.50551705e-01 -2.63684117e-01 -1.14386407e-01 2.50154729e-02 1.07933055e-01 1.17037693e-01 -2.74214092e-01 -5.78015913e-02 1.47161455e-01 3.12116385e-01 4.14284257e-01 4.26257359e-02 1.95008719e-01 3.35968071e-01 4.60089624e-01 5.62320446e-01 5.32851536e-01 5.32851536e-01 5.32851536e-01 5.32851536e-01 5.32851536e-01 
        </DataArray>
      </PointData>
    </Piece>
    <Piece NumberOfPoints="25" NumberOfCells="16">
      <Points>
        <DataArray type="Float64" NumberOfComponents="3" format="ascii">
          2.00000003e-01 -1.00000000e+00 0.00000000e+00 
3.00000012e-01 -1.00000000e+00 0.00000000e+00 
4.00000006e-01 -1.00000000e+00 0.00000000e+00 
5.00000000e-01 -1.00000000e+00 0.00000000e+00 
6.00000024e-01 -1.00000000e+00 0.00000000e+00 
2.77416945e-01 -9.03810143e-01 0.00000000e+00 
3.52416933e-01 -9.03810143e-01 0.00000000e+00 
4.27416950e-01 -9.03810143e-01 0.00000000e+00 
5.02416968e-01 -9.03810143e-01 0.00000000e+00 
5.77416956e-01 -9.03810143e-01 0.00000000e+00 
3.54833901e-01 -8.07620287e-01 0.00000000e+00 
4.04833883e-01 -8.07620287e-01 0.00000000e+00 
4.54833895e-01 -8.07620287e-01 0.00000000e+00 
5.04833877e-01 -8.07620287e-01 0.00000000e+00 
5.54833889e-01 -8.07620287e-01 0.00000000e+00 
4.32250828e-01 -7.11430371e-01 0.00000000e+00 
4.57250834e-01 -7.11430371e-01 0.00000000e+00 
4.82250839e-01 -7.11430371e-01 0.00000000e+00 
5.07250845e-01 -7.11430371e-01 0.00000000e+00 
5.32250822e-01 -7.11430371e-01 0.00000000e+00 
5.09667814e-01 -6.15240514e-01 0.00000000e+00 
5.09667814e-01 -6.15240514e-01 0.00000000e+00 
5.09667814e-01 -6.15240514e-01 0.00000000e+00 
5.09667814e-01 -6.15240514e-01 0.00000000e+00 
5.09667814e-01 -6.15240514e-01 0.00000000e+00 

        </DataArray>
      </Points>
      <Cells>
        <DataArray type="Int32" Name="connectivity" format="ascii">
0 1 6 5
5 6 11 10
10 11 16 15
15 16 21 20
1 2 7 6
6 7 12 11
11 12 17 16
16 17 22 21
2 3 8 7
7 8 13 12
12 13 18 17
17 18 23 22
3 4 9 8
8 9 14 13
13 14 19 18
18 19 24 23

        </DataArray>
        <DataArray type="Int32" Name="offsets" format="ascii">
4 8 12 16 20 24 28 32 36 40 44 48 52 56 60 64 
        </DataArray>
        <DataArray type="UInt8" Name="types" format="ascii">
9 9 9 9 9 9 9 9 9 9 9 9 9 9 9 9 
        </DataArray>
      </Cells>
      <PointData>
        <DataArray type="Float64" Name="u">
          1.12420647e-02 5.92493395e-01 9.55460495e-01 9.53476780e-01 5.91455583e-01 3.80997170e-01 6.70231899e-01 8.14186139e-01 7.77636528e-01 5.73320537e-01 2.98179268e-01 3.43941196e-01 3.56857120e-01 3.34387259e-01 2.83465576e-01 -2.40754972e-01 -2.47250180e-01 -2.43595826e-01 -2.29122286e-01 -2.02567828e-01 -6.51460214e-01 -6.51460214e-01 -6.51460214e-01 -6.51460214e-01 -6.51460214e-01 
        </DataArray>
      </PointData>
    </Piece>
    <Piece NumberOfPoints="25" NumberOfCells="16">
      <Points>
        <DataArray type="Float64" NumberOfComponents="3" format="ascii">
          -6.00000024e-01 -1.00000000e+00 0.00000000e+00 
-5.00000000e-01 -1.00000000e+00 0.00000000e+00 
-4.00000006e-01 -1.00000000e+00 0.00000000e+00 
-3.00000012e-01 -1.00000000e+00 0.00000000e+00 
-2.00000003e-01 -1.00000000e+00 0.00000000e+00 
-5.77416956e-01 -9.03810143e-01 0.00000000e+00 
-5.02416968e-01 -9.03810143e-01 0.00000000e+00 
-4.27416950e-01 -9.03810143e-01 0.00000000e+00 
-3.52416933e-01 -9.03810143e-01 0.00000000e+00 
-2.77416945e-01 -9.03810143e-01 0.00000000e+00 
-5.54833889e-01 -8.07620287e-01 0.00000000e+00 
-5.04833877e-01 -8.07620287e-01 0.00000000e+00 
-4.54833895e-01 -8.07620287e-01 0.00000000e+00 
-4.04833883e-01 -8.07620287e-01 0.00000000e+00 
-3.54833901e-01 -8.07620287e-01 0.00000000e+00 
-5.32250822e-01 -7.11430371e-01 0.00000000e+00 
-5.07250845e-01 -7.11430371e-01 0.00000000e+00 
-4.82250839e-01 -7.11430371e-01 0.00000000e+00 
-4.57250834e-01 -7.11430371e-01 0.00000000e+00 
-4.32250828e-01 -7.11430371e-01 0.00000000e+00 
-5.09667814e-01 -6.15240514e-01 0.00000000e+00 
-5.09667814e-01 -6.15240514e-01 0.00000000e+00 
-5.09667814e-01 -6.15240514e-01 0.00000000e+00 
-5.09667814e-01 -6.15240514e-01 0.00000000e+00 
-5.09667814e-01 -6.15240514e-01 0.00000000e+00 

        </DataArray>
      </Points>
      <Cells>
        <DataArray type="Int32" Name="connectivity" format="ascii">
0 1 6 5
5 6 11 10
10 11 16 15
15 16 21 20
1 2 7 6
6 7 12 11
11 12 17 16
16 17 22 21
2 3 8 7
7 8 13 12
12 13 18 17
17 18 23 22
3 4 9 8
8 9 14 13
13 14 19 18
18 19 24 23

        </DataArray>
        <DataArray type="Int32" Name="offsets" format="ascii">
4 8 12 16 20 24 28 32 36 40 44 48 52 56 60 64 
        </DataArray>
        <DataArray type="UInt8" Name="types" format="ascii">
9 9 9 9 9 9 9 9 9 9 9 9 9 9 9 9 
        </DataArray>
      </Cells>
      <PointData>
        <DataArray type="Float64" Name="u">
          9.62808682e-01 9.69697529e-01 6.00838453e-01 7.67096911e-03 -5.72920927e-01 8.08085674e-01 7.83052450e-01 5.89124756e-01 2.67601072e-01 -1.13184955e-01 3.60752668e-01 3.48203929e-01 2.99463614e-01 2.20074955e-01 1.20921464e-01 -2.54544089e-01 -2.46095911e-01 -2.31977505e-01 -2.12332636e-01 -1.86971300e-01 -6.30826598e-01 -6.30826598e-01 -6.30826598e-01 -6.30826598e-01 -6.30826598e-01 
        </DataArray>
      </PointData>
    </Piece>
    <Piece NumberOfPoints="25" NumberOfCells="16">
      <Points>
        <DataArray type="Float64" NumberOfComponents="3" format="ascii">
          6.66666687e-01 -2.50000000e-01 0.00000000e+00 
5.83333313e-01 -2.50000000e-01 0.00000000e+00 
5.00000000e-01 -2.50000000e-01 0.00000000e+00 
4.16666657e-01 -2.50000000e-01 0.00000000e+00 
3.33333343e-01 -2.50000000e-01 0.00000000e+00 
6.27416968e-01 -3.41310143e-01 0.00000000e+00 
5.64916968e-01 -3.41310143e-01 0.00000000e+00 
5.02416968e-01 -3.41310143e-01 0.00000000e+00 
4.39916939e-01 -3.41310143e-01 0.00000000e+00 
3.77416939e-01 -3.41310143e-01 0.00000000e+00 
5.88167250e-01 -4.32620257e-01 0.00000000e+00 
5.46500564e-01 -4.32620257e-01 0.00000000e+00 
5.04833877e-01 -4.32620257e-01 0.00000000e+00 
4.63167220e-01 -4.32620257e-01 0.00000000e+00 
4.21500564e-01 -4.32620257e-01 0.00000000e+00 
5.48917532e-01 -5.23930371e-01 0.00000000e+00 
5.28084159e-01 -5.23930371e-01 0.00000000e+00 
5.07250845e-01 -5.23930371e-01 0.00000000e+00 
4.86417502e-01 -5.23930371e-01 0.00000000e+00 
4.65584159e-01 -5.23930371e-01 0.00000000e+00 
5.09667814e-01 -6.15240514e-01 0.00000000e+00 
5.09667814e-01 -6.15240514e-01 0.00000000e+00 
5.09667814e-01 -6.15240514e-01 0.00000000e+00 
5.09667814e-01 -6.15240514e-01 0.00000000e+00 
5.09667814e-01 -6.15240514e-01 0.00000000e+00 

        </DataArray>
      </Points>
      <Cells>
        <DataArray type="Int32" Name="connectivity" format="ascii">
0 1 6 5
5 6 11 10
10 11 16 15
15 16 21 20
1 2 7 6
6 7 12 11
11 12 17 16
16 17 22 21
2 3 8 7
7 8 13 12
12 13 18 17
17 18 23 22
3 4 9 8
8 9 14 13
13 14 19 18
18 19 24 23

        </DataArray>
        <DataArray type="Int32" Name="offsets" format="ascii">
4 8 12 16 20 24 28 32 36 40 44 48 52 56 60 64 
        </DataArray>
        <DataArray type="UInt8" Name="types" format="ascii">
9 9 9 9 9 9 9 9 9 9 9 9 9 9 9 9 
        </DataArray>
      </Cells>
      <PointData>
        <DataArray type="Float64" Name="u">
          -6.55105243e-03 -1.78865269e-03 -2.64872784e-03 -4.28081584e-03 -1.77191433e-02 -2.39943475e-01 -4.07961948e-01 -5.13485012e-01 -5.42059861e-01 -4.84259703e-01 -5.89979126e-01 -7.48299585e-01 -8.57843242e-01 -9.10651779e-01 -8.99759670e-01 -8.03914932e-01 -8.71462449e-01 -9.23610573e-01 -9.58905012e-01 -9.75953526e-01 -7.11615635e-01 -7.11615635e-01 -7.11615635e-01 -7.11615635e-01 -7.11615635e-01 
        </DataArray>
      </PointData>
    </Piece>
    <Piece NumberOfPoints="25" NumberOfCells="16">
      <Points>
        <DataArray type="Float64" NumberOfComponents="3" format="ascii">
          -3.33333343e-01 -2.50000000e-01 0.00000000e+00 
-4.16666657e-01 -2.50000000e-01 0.00000000e+00 
-5.00000000e-01 -2.50000000e-01 0.00000000e+00 
-5.83333313e-01 -2.50000000e-01 0.00000000e+00 
-6.66666687e-01 -2.50000000e-01 0.00000000e+00 
-3.77416939e-01 -3.41310143e-01 0.00000000e+00 
-4.39916939e-01 -3.41310143e-01 0.00000000e+00 
-5.02416968e-01 -3.41310143e-01 0.00000000e+00 
-5.64916968e-01 -3.41310143e-01 0.00000000e+00 
-6.27416968e-01 -3.41310143e-01 0.00000000e+00 
-4.21500564e-01 -4.32620257e-01 0.00000000e+00 
-4.63167220e-01 -4.32620257e-01 0.00000000e+00 
-5.04833877e-01 -4.32620257e-01 0.00000000e+00 
-5.46500564e-01 -4.32620257e-01 0.00000000e+00 
-5.88167250e-01 -4.32620257e-01 0.00000000e+00 
-4.65584159e-01 -5.23930371e-01 0.00000000e+00 
-4.86417502e-01 -5.23930371e-01 0.00000000e+00 
-5.07250845e-01 -5.23930371e-01 0.00000000e+00 
-5.28084159e-01 -5.23930371e-01 0.00000000e+00 
-5.48917532e-01 -5.23930371e-01 0.00000000e+00 
-5.09667814e-01 -6.15240514e-01 0.00000000e+00 
-5.09667814e-01 -6.15240514e-01 0.00000000e+00 
-5.09667814e-01 -6.15240514e-01 0.00000000e+00 
-5.09667814e-01 -6.15240514e-01 0.00000000e+00 
-5.09667814e-01 -6.15240514e-01 0.00000000e+00 

        </DataArray>
      </Points>
      <Cells>
        <DataArray type="Int32" Name="connectivity" format="ascii">
0 1 6 5
5 6 11 10
10 11 16 15
15 16 21 20
1 2 7 6
6 7 12 11
11 12 17 16
16 17 22 21
2 3 8 7
7 8 13 12
12 13 18 17
17 18 23 22
3 4 9 8
8 9 14 13
13 14 19 18
18 19 24 23

        </DataArray>
        <DataArray type="Int32" Name="offsets" format="ascii">
4 8 12 16 20 24 28 32 36 40 44 48 52 56 60 64 
        </DataArray>
        <DataArray type="UInt8" Name="types" format="ascii">
9 9 9 9 9 9 9 9 9 9 9 9 9 9 9 9 
        </DataArray>
      </Cells>
      <PointData>
        <DataArray type="Float64" Name="u">
          -7.92056349e-03 -2.44874304e-03 -2.91477463e-03 -4.38362743e-03 -1.71395842e-02 -2.54747263e-01 -4.18773316e-01 -5.18532276e-01 -5.40720742e-01 -4.76850798e-01 -6.31123837e-01 -7.78518400e-01 -8.75161968e-01 -9.13787921e-01 -8.88080850e-01 -8.52123360e-01 -9.09873553e-01 -9.51353980e-01 -9.75240704e-01 -9.80269240e-01 -7.40211855e-01 -7.40211855e-01 -7.40211855e-01 -7.40211855e-01 -7.40211855e-01 
        </DataArray>
      </PointData>
    </Piece>
    <Piece NumberOfPoints="25" NumberOfCells="16">
      <Points>
        <DataArray type="Float64" NumberOfComponents="3" format="ascii">
          -2.00000003e-01 -1.00000000e+00 0.00000000e+00 
-1.00000001e-01 -1.00000000e+00 0.00000000e+00 
0.00000000e+00 -1.00000000e+00 0.00000000e+00 
1.00000001e-01 -1.00000000e+00 0.00000000e+00 
2.00000003e-01 -1.00000000e+00 0.00000000e+00 
-1.50000006e-01 -9.13731158e-01 0.00000000e+00 
-7.50000030e-02 -9.13731158e-01 0.00000000e+00 
-1.19149170e-13 -9.13731158e-01 0.00000000e+00 
7.50000030e-02 -9.13731158e-01 0.00000000e+00 
1.50000006e-01 -9.13731158e-01 0.00000000e+00 
-1.00000001e-01 -8.27462375e-01 0.00000000e+00 
-5.00000007e-02 -8.27462375e-01 0.00000000e+00 
-2.38296308e-13 -8.27462375e-01 0.00000000e+00 
5.00000007e-02 -8.27462375e-01 0.00000000e+00 
1.00000001e-01 -8.27462375e-01 0.00000000e+00 
-5.00000007e-02 -7.41193533e-01 0.00000000e+00 
-2.50000004e-02 -7.41193533e-01 0.00000000e+00 
-3.57441426e-13 -7.41193533e-01 0.00000000e+00 
2.50000004e-02 -7.41193533e-01 0.00000000e+00 
5.00000007e-02 -7.41193533e-01 0.00000000e+00 
-4.76590989e-13 -6.54924691e-01 0.00000000e+00 
-4.76584375e-13 -6.54924691e-01 0.00000000e+00 
-4.76584484e-13 -6.54924691e-01 0.00000000e+00 
-4.76591314e-13 -6.54924691e-01 0.00000000e+00 
-4.76604867e-13 -6.54924691e-01 0.00000000e+00 

        </DataArray>
      </Points>
      <Cells>
        <DataArray type="Int32" Name="connectivity" format="ascii">
0 1 6 5
5 6 11 10
10 11 16 15
15 16 21 20
1 2 7 6
6 7 12 11
11 12 17 16
16 17 22 21
2 3 8 7
7 8 13 12
12 13 18 17
17 18 23 22
3 4 9 8
8 9 14 13
13 14 19 18
18 19 24 23

        </DataArray>
        <DataArray type="Int32" Name="offsets" format="ascii">
4 8 12 16 20 24 28 32 36 40 44 48 52 56 60 64 
        </DataArray>
        <DataArray type="UInt8" Name="types" format="ascii">
9 9 9 9 9 9 9 9 9 9 9 9 9 9 9 9 
        </DataArray>
      </Cells>
      <PointData>
        <DataArray type="Float64" Name="u">
          -5.95778435e-01 -9.60345572e-01 -9.57245573e-01 -5.90169038e-01 -7.37471892e-03 -6.89766668e-01 -8.43180014e-01 -8.14550701e-01 -6.05978036e-01 -2.65303593e-01 -4.45363112e-01 -4.69441633e-01 -4.47397112e-01 -3.80012258e-01 -2.77105288e-01 5.93007251e-02 6.06290716e-02 5.88480092e-02 5.38396130e-02 4.49212385e-02 4.97531382e-01 4.97531382e-01 4.97531382e-01 4.97531382e-01 4.97531382e-01 
        </DataArray>
      </PointData>
    </Piece>
    <Piece NumberOfPoints="25" NumberOfCells="16">
      <Points>
        <DataArray type="Float64" NumberOfComponents="3" format="ascii">
          2.75224288e-12 -2.50000000e-01 0.00000000e+00 
-6.01870455e-02 -3.15577954e-01 0.00000000e+00 
-1.20374091e-01 -3.81155878e-01 0.00000000e+00 
-1.80561140e-01 -4.46733832e-01 0.00000000e+00 
-2.40748182e-01 -5.12311757e-01 0.00000000e+00 
1.94503571e-12 -3.51231188e-01 0.00000000e+00 
-4.51402850e-02 -4.00414646e-01 0.00000000e+00 
-9.02805701e-02 -4.49598104e-01 0.00000000e+00 
-1.35420859e-01 -4.98781562e-01 0.00000000e+00 
-1.80561140e-01 -5.47964990e-01 0.00000000e+00 
1.13782876e-12 -4.52462345e-01 0.00000000e+00 
-3.00935227e-02 -4.85251337e-01 0.00000000e+00 
-6.01870455e-02 -5.18040299e-01 0.00000000e+00 
-9.02805701e-02 -5.50829291e-01 0.00000000e+00 
-1.20374091e-01 -5.83618224e-01 0.00000000e+00 
3.30621652e-13 -5.53693533e-01 0.00000000e+00 
-1.50467614e-02 -5.70088029e-01 0.00000000e+00 
-3.00935227e-02 -5.86482525e-01 0.00000000e+00 
-4.51402850e-02 -6.02876961e-01 0.00000000e+00 
-6.01870455e-02 -6.19271457e-01 0.00000000e+00 
-4.76585459e-13 -6.54924691e-01 0.00000000e+00 
-4.76585459e-13 -6.54924691e-01 0.00000000e+00 
-4.76577111e-13 -6.54924691e-01 0.00000000e+00 
-4.76560469e-13 -6.54924691e-01 0.00000000e+00 
-4.76535478e-13 -6.54924691e-01 0.00000000e+00 

        </DataArray>
      </Points>
      <Cells>
        <DataArray type="Int32" Name="connectivity" format="ascii">
0 1 6 5
5 6 11 10
10 11 16 15
15 16 21 20
1 2 7 6
6 7 12 11
11 12 17 16
16 17 22 21
2 3 8 7
7 8 13 12
12 13 18 17
17 18 23 22
3 4 9 8
8 9 14 13
13 14 19 18
18 19 24 23

        </DataArray>
        <DataArray type="Int32" Name="offsets" format="ascii">
4 8 12 16 20 24 28 32 36 40 44 48 52 56 60 64 
        </DataArray>
        <DataArray type="UInt8" Name="types" format="ascii">
9 9 9 9 9 9 9 9 9 9 9 9 9 9 9 9 
        </DataArray>
      </Cells>
      <PointData>
        <DataArray type="Float64" Name="u">
          9.55194046e-03 4.00220505e-01 6.64571227e-01 6.45145852e-01 3.63234387e-01 5.64851146e-01 8.09968973e-01 9.19626642e-01 8.59448567e-01 6.51616223e-01 9.09351392e-01 9.88470151e-01 9.92186187e-01 9.19811064e-01 7.81828110e-01 8.96806452e-01 8.82525235e-01 8.48950497e-01 7.97183298e-01 7.29022934e-01 5.41305885e-01 5.41305885e-01 5.41305885e-01 5.41305885e-01 5.41305885e-01 
        </DataArray>
      </PointData>
    </Piece>
    <Piece NumberOfPoints="25" NumberOfCells="16">
      <Points>
        <DataArray type="Float64" NumberOfComponents="3" format="ascii">
          2.75224288e-12 -2.50000000e-01 0.00000000e+00 
1.94503571e-12 -3.51231188e-01 0.00000000e+00 
1.13782876e-12 -4.52462345e-01 0.00000000e+00 
3.30621652e-13 -5.53693533e-01 0.00000000e+00 
-4.76585459e-13 -6.54924691e-01 0.00000000e+00 
6.01870455e-02 -3.15577954e-01 0.00000000e+00 
6.01870455e-02 -3.91501337e-01 0.00000000e+00 
6.01870455e-02 -4.67424721e-01 0.00000000e+00 
6.01870455e-02 -5.43348074e-01 0.00000000e+00 
6.01870455e-02 -6.19271457e-01 0.00000000e+00 
1.20374091e-01 -3.81155878e-01 0.00000000e+00 
1.20374091e-01 -4.31771487e-01 0.00000000e+00 
1.20374091e-01 -4.82387066e-01 0.00000000e+00 
1.20374091e-01 -5.33002675e-01 0.00000000e+00 
1.20374091e-01 -5.83618224e-01 0.00000000e+00 
1.80561140e-01 -4.46733832e-01 0.00000000e+00 
1.80561140e-01 -4.72041637e-01 0.00000000e+00 
1.80561140e-01 -4.97349411e-01 0.00000000e+00 
1.80561140e-01 -5.22657216e-01 0.00000000e+00 
1.80561140e-01 -5.47964990e-01 0.00000000e+00 
2.40748182e-01 -5.12311757e-01 0.00000000e+00 
2.40748182e-01 -5.12311757e-01 0.00000000e+00 
2.40748182e-01 -5.12311757e-01 0.00000000e+00 
2.40748182e-01 -5.12311757e-01 0.00000000e+00 
2.40748182e-01 -5.12311757e-01 0.00000000e+00 

        </DataArray>
      </Points>
      <Cells>
        <DataArray type="Int32" Name="connectivity" format="ascii">
0 1 6 5
5 6 11 10
10 11 16 15
15 16 21 20
1 2 7 6
6 7 12 11
11 12 17 16
16 17 22 21
2 3 8 7
7 8 13 12
12 13 18 17
17 18 23 22
3 4 9 8
8 9 14 13
13 14 19 18
18 19 24 23

        </DataArray>
        <DataArray type="Int32" Name="offsets" format="ascii">
4 8 12 16 20 24 28 32 36 40 44 48 52 56 60 64 
        </DataArray>
        <DataArray type="UInt8" Name="types" format="ascii">
9 9 9 9 9 9 9 9 9 9 9 9 9 9 9 9 
        </DataArray>
      </Cells>
      <PointData>
        <DataArray type="Float64" Name="u">
          -4.95560784e-03 5.62862789e-01 9.05570459e-01 8.94882150e-01 5.29047877e-01 3.09618037e-01 5.97966938e-01 7.53823052e-01 7.41449903e-01 5.65147562e-01 3.52279442e-01 4.35224565e-01 4.75485692e-01 4.67921310e-01 4.15298355e-01 1.17730754e-01 1.21313998e-01 1.22979088e-01 1.22764218e-01 1.21201860e-01 -2.63313931e-01 -2.63313931e-01 -2.63313931e-01 -2.63313931e-01 -2.63313931e-01 
        </DataArray>
      </PointData>
    </Piece>
    <Piece NumberOfPoints="25" NumberOfCells="16">
      <Points>
        <DataArray type="Float64" NumberOfComponents="3" format="ascii">
          -3.33333343e-01 -2.50000000e-01 0.00000000e+00 
-3.77416939e-01 -3.41310143e-01 0.00000000e+00 
-4.21500564e-01 -4.32620257e-01 0.00000000e+00 
-4.65584159e-01 -5.23930371e-01 0.00000000e+00 
-5.09667814e-01 -6.15240514e-01 0.00000000e+00 
-3.10187042e-01 -3.15577954e-01 0.00000000e+00 
-3.43249768e-01 -3.84060532e-01 0.00000000e+00 
-3.76312464e-01 -4.52543139e-01 0.00000000e+00 
-4.09375161e-01 -5.21025717e-01 0.00000000e+00 
-4.42437887e-01 -5.89508355e-01 0.00000000e+00 
-2.87040770e-01 -3.81155878e-01 0.00000000e+00 
-3.09082568e-01 -4.26810950e-01 0.00000000e+00 
-3.31124365e-01 -4.72466022e-01 0.00000000e+00 
-3.53166193e-01 -5.18121064e-01 0.00000000e+00 
-3.75207990e-01 -5.63776135e-01 0.00000000e+00 
-2.63894469e-01 -4.46733832e-01 0.00000000e+00 
-2.74915367e-01 -4.69561368e-01 0.00000000e+00 
-2.85936266e-01 -4.92388904e-01 0.00000000e+00 
-2.96957195e-01 -5.15216410e-01 0.00000000e+00 
-3.07978094e-01 -5.38043976e-01 0.00000000e+00 
-2.40748182e-01 -5.12311757e-01 0.00000000e+00 
-2.40748182e-01 -5.12311757e-01 0.00000000e+00 
-2.40748182e-01 -5.12311757e-01 0.00000000e+00 
-2.40748182e-01 -5.12311757e-01 0.00000000e+00 
-2.40748182e-01 -5.12311757e-01 0.00000000e+00 

        </DataArray>
      </Points>
      <Cells>
        <DataArray type="Int32" Name="connectivity" format="ascii">
0 1 6 5
5 6 11 10
10 11 16 15
15 16 21 20
1 2 7 6
6 7 12 11
11 12 17 16
16 17 22 21
2 3 8 7
7 8 13 12
12 13 18 17
17 18 23 22
3 4 9 8
8 9 14 13
13 14 19 18
18 19 24 23

        </DataArray>
        <DataArray type="Int32" Name="offsets" format="ascii">
4 8 12 16 20 24 28 32 36 40 44 48 52 56 60 64 
        </DataArray>
        <DataArray type="UInt8" Name="types" format="ascii">
9 9 9 9 9 9 9 9 9 9 9 9 9 9 9 9 
        </DataArray>
      </Cells>
      <PointData>
        <DataArray type="Float64" Name="u">
          -5.83417526e-04 -2.54707212e-01 -6.28226665e-01 -8.53402577e-01 -7.12211568e-01 -2.76373579e-02 -2.00724755e-01 -4.40353717e-01 -6.28318132e-01 -6.62142285e-01 5.90444290e-02 -5.01385830e-02 -1.90359442e-01 -3.25037481e-01 -4.20699274e-01 2.11544385e-01 1.54092421e-01 8.80803644e-02 1.82753780e-02 -5.07495781e-02 3.63956148e-01 3.63956148e-01 3.63956148e-01 3.63956148e-01 3.63956148e-01 
        </DataArray>
      </PointData>
    </Piece>
    <Piece NumberOfPoints="25" NumberOfCells="16">
      <Points>
        <DataArray type="Float64" NumberOfComponents="3" format="ascii">
          3.33333343e-01 -2.50000000e-01 0.00000000e+00 
3.10187042e-01 -3.15577954e-01 0.00000000e+00 
2.87040770e-01 -3.81155878e-01 0.00000000e+00 
2.63894469e-01 -4.46733832e-01 0.00000000e+00 
2.40748182e-01 -5.12311757e-01 0.00000000e+00 
3.77416939e-01 -3.41310143e-01 0.00000000e+00 
3.60057235e-01 -3.90493572e-01 0.00000000e+00 
3.42697531e-01 -4.39677030e-01 0.00000000e+00 
3.25337797e-01 -4.88860488e-01 0.00000000e+00 
3.07978094e-01 -5.38043976e-01 0.00000000e+00 
4.21500564e-01 -4.32620257e-01 0.00000000e+00 
4.09927428e-01 -4.65409219e-01 0.00000000e+00 
3.98354262e-01 -4.98198211e-01 0.00000000e+00 