<?xml version="1.0"?>
<VTKFile type="UnstructuredGrid" version="0.1" byte_order="LittleEndian">
  <UnstructuredGrid>
    <Piece NumberOfPoints="25" NumberOfCells="16">
      <Points>
        <DataArray type="Float64" NumberOfComponents="3" format="ascii">
          2.00000003e-01 -1.00000000e+00 0.00000000e+00 
2.77416945e-01 -9.03810143e-01 0.00000000e+00 
3.54833901e-01 -8.07620287e-01 0.00000000e+00 
4.32250828e-01 -7.11430371e-01 0.00000000e+00 
5.09667814e-01 -6.15240514e-01 0.00000000e+00 
2.10187048e-01 -8.78077924e-01 0.00000000e+00 
2.68249750e-01 -8.05935562e-01 0.00000000e+00 
3.26312453e-01 -7.33793139e-01 0.00000000e+00 
3.84375185e-01 -6.61650717e-01 0.00000000e+00 
4.42437887e-01 -5.89508355e-01 0.00000000e+00 
2.20374092e-01 -7.56155908e-01 0.00000000e+00 
2.59082556e-01 -7.08060980e-01 0.00000000e+00 
2.97791034e-01 -6.59965992e-01 0.00000000e+00 
3.36499512e-01 -6.11871064e-01 0.00000000e+00 
3.75207990e-01 -5.63776135e-01 0.00000000e+00 
2.30561137e-01 -6.34233832e-01 0.00000000e+00 
2.49915376e-01 -6.10186338e-01 0.00000000e+00 
2.69269615e-01 -5.86138904e-01 0.00000000e+00 
2.88623840e-01 -5.62091410e-01 0.00000000e+00 
3.07978094e-01 -5.38043976e-01 0.00000000e+00 
2.40748182e-01 -5.12311757e-01 0.00000000e+00 
2.40748182e-01 -5.12311757e-01 0.00000000e+00 
2.40748182e-01 -5.12311757e-01 0.00000000e+00 
2.40748182e-01 -5.12311757e-01 0.00000000e+00 
2.40748182e-01 -5.12311757e-01 0.00000000e+00 

        </DataArray>
      </Points>
      <Cells>
        <DataArray type="Int32" Name="connectivity" format="ascii">
0 1 6 5
5 6 11 10
10 11 16 15
15 16 21 20
1 2 7 6
6 7 12 11
11 12 17 16
16 17 22 21
2 3 8 7
7 8 13 12
12 13 18 17
17 18 23 22
3 4 9 8
8 9 14 13
13 14 19 18
18 19 24 23

        </DataArray>
        <DataArray type="Int32" Name="offsets" format="ascii">
4 8 12 16 20 24 28 32 36 40 44 48 52 56 60 64 
        </DataArray>
        <DataArray type="UInt8" Name="types" format="ascii">
9 9 9 9 9 9 9 9 9 9 9 9 9 9 9 9 
        </DataArray>
      </Cells>
      <PointData>
        <DataArray type="Float64" Name="u">
          5.69650248e-01 1.20857930e-01 -1.16150694e-01 1.65566014e-01 7.41765217e-01 3.88937323e-01 6.66054247e-02 1.38815618e-02 2.61889807e-01 6.73684146e-01 1.57360759e-02 -6.72655712e-02 -7.06469926e-03 1.76414882e-01 4.30050334e-01 -2.78947331e-01 -2.35680980e-01 -1.61645603e-01 -6.29748976e-02 5.21225025e-02 -3.65200163e-01 -3.65200163e-01 -3.65200163e-01 -3.65200163e-01 -3.65200163e-01 
        </DataArray>
      </PointData>
    </Piece>
    <Piece NumberOfPoints="25" NumberOfCells="16">
      <Points>
        <DataArray type="Float64" NumberOfComponents="3" format="ascii">
          -2.00000003e-01 -1.00000000e+00 0.00000000e+00 
-2.10187048e-01 -8.78077924e-01 0.00000000e+00 
-2.20374092e-01 -7.56155908e-01 0.00000000e+00 
-2.30561137e-01 -6.34233832e-01 0.00000000e+00 
-2.40748182e-01 -5.12311757e-01 0.00000000e+00 
-2.77416945e-01 -9.03810143e-01 0.00000000e+00 
-2.85057217e-01 -8.12368572e-01 0.00000000e+00 
-2.92697519e-01 -7.20927060e-01 0.00000000e+00 
-3.00337791e-01 -6.29485488e-01 0.00000000e+00 
-3.07978094e-01 -5.38043976e-01 0.00000000e+00 
-3.54833901e-01 -8.07620287e-01 0.00000000e+00 
-3.59927416e-01 -7.46659219e-01 0.00000000e+00 
-3.65020931e-01 -6.85698211e-01 0.00000000e+00 
-3.70114475e-01 -6.24737144e-01 0.00000000e+00 
-3.75207990e-01 -5.63776135e-01 0.00000000e+00 
-4.32250828e-01 -7.11430371e-01 0.00000000e+00 
-4.34797585e-01 -6.80949867e-01 0.00000000e+00 
-4.37344372e-01 -6.50469363e-01 0.00000000e+00 
-4.39891130e-01 -6.19988859e-01 0.00000000e+00 
-4.42437887e-01 -5.89508355e-01 0.00000000e+00 
-5.09667814e-01 -6.15240514e-01 0.00000000e+00 
-5.09667814e-01 -6.15240514e-01 0.00000000e+00 
-5.09667814e-01 -6.15240514e-01 0.00000000e+00 
-5.09667814e-01 -6.15240514e-01 0.00000000e+00 
-5.09667814e-01 -6.15240514e-01 0.00000000e+00 

        </DataArray>
      </Points>
      <Cells>
        <DataArray type="Int32" Name="connectivity" format="ascii">
0 1 6 5
5 6 11 10
10 11 16 15
15 16 21 20
1 2 7 6
6 7 12 11
11 12 17 16
16 17 22 21
2 3 8 7
7 8 13 12
12 13 18 17
17 18 23 22
3 4 9 8
8 9 14 13
13 14 19 18
18 19 24 23

        </DataArray>
        <DataArray type="Int32" Name="offsets" format="ascii">
4 8 12 16 20 24 28 32 36 40 44 48 52 56 60 64 
        </DataArray>
        <DataArray type="UInt8" Name="types" format="ascii">
9 9 9 9 9 9 9 9 9 9 9 9 9 9 9 9 
        </DataArray>
      </Cells>
      <PointData>
        <DataArray type="Float64" Name="u">
          2.98225344e-02 -5.24554820e-02 -5.39122917e-03 1.26531610e-01 2.51946397e-01 -3.90723750e-01 -1.89785505e-01 1.01228783e-01 4.02035850e-01 6.17518373e-01 -2.89940327e-01 1.62823421e-02 3.33468063e-01 6.19602029e-01 8.29739250e-01 2.38170360e-01 4.18399044e-01 5.84908562e-01 7.30168665e-01 8.46465971e-01 6.75995650e-01 6.75995650e-01 6.75995650e-01 6.75995650e-01 6.75995650e-01 
        </DataArray>
      </PointData>
    </Piece>
    <Piece NumberOfPoints="25" NumberOfCells="16">
      <Points>
        <DataArray type="Float64" NumberOfComponents="3" format="ascii">
          -2.00000003e-01 -1.00000000e+00 0.00000000e+00 
-1.50000006e-01 -9.13731158e-01 0.00000000e+00 
-1.00000001e-01 -8.27462375e-01 0.00000000e+00 
-5.00000007e-02 -7.41193533e-01 0.00000000e+00 
-4.76585459e-13 -6.54924691e-01 0.00000000e+00 
-2.10187048e-01 -8.78077924e-01 0.00000000e+00 
-1.72687054e-01 -8.13376307e-01 0.00000000e+00 
-1.35187045e-01 -7.48674691e-01 0.00000000e+00 
-9.76870507e-02 -6.83973074e-01 0.00000000e+00 
-6.01870455e-02 -6.19271457e-01 0.00000000e+00 
-2.20374092e-01 -7.56155908e-01 0.00000000e+00 
-1.95374101e-01 -7.13021457e-01 0.00000000e+00 
-1.70374095e-01 -6.69887066e-01 0.00000000e+00 
-1.45374089e-01 -6.26752675e-01 0.00000000e+00 
-1.20374091e-01 -5.83618224e-01 0.00000000e+00 
-2.30561137e-01 -6.34233832e-01 0.00000000e+00 
-2.18061134e-01 -6.12666607e-01 0.00000000e+00 
-2.05561146e-01 -5.91099441e-01 0.00000000e+00 
-1.93061143e-01 -5.69532216e-01 0.00000000e+00 
-1.80561140e-01 -5.47964990e-01 0.00000000e+00 
-2.40748182e-01 -5.12311757e-01 0.00000000e+00 
-2.40748182e-01 -5.12311757e-01 0.00000000e+00 
-2.40748182e-01 -5.12311757e-01 0.00000000e+00 
-2.40748182e-01 -5.12311757e-01 0.00000000e+00 
-2.40748182e-01 -5.12311757e-01 0.00000000e+00 

        </DataArray>
      </Points>
      <Cells>
        <DataArray type="Int32" Name="connectivity" format="ascii">
0 1 6 5
5 6 11 10
10 11 16 15
15 16 21 20
1 2 7 6
6 7 12 11
11 12 17 16
16 17 22 21
2 3 8 7
7 8 13 12
12 13 18 17
17 18 23 22
3 4 9 8
8 9 14 13
13 14 19 18
18 19 24 23

        </DataArray>
        <DataArray type="Int32" Name="offsets" format="ascii">
4 8 12 16 20 24 28 32 36 40 44 48 52 56 60 64 
        </DataArray>
        <DataArray type="UInt8" Name="types" format="ascii">
9 9 9 9 9 9 9 9 9 9 9 9 9 9 9 9 
        </DataArray>
      </Cells>
      <PointData>
        <DataArray type="Float64" Name="u">
          2.08968095e-03 2.64868809e-01 2.69833972e-01 -4.15142435e-02 -5.35866119e-01 -4.76231174e-02 6.45973722e-02 -2.32419079e-03 -2.36429261e-01 -5.65069684e-01 -4.00841007e-03 -5.27413428e-03 -8.67332040e-02 -2.33986647e-01 -4.20647420e-01 1.27316262e-01 8.62877729e-02 2.87149191e-02 -4.22454650e-02 -1.22687291e-01 2.47830642e-01 2.47830642e-01 2.47830642e-01 2.47830642e-01 2.47830642e-01 
        </DataArray>
      </PointData>
    </Piece>
    <Piece NumberOfPoints="25" NumberOfCells="16">
      <Points>
        <DataArray type="Float64" NumberOfComponents="3" format="ascii">
          2.00000003e-01 -1.00000000e+00 0.00000000e+00 
2.10187048e-01 -8.78077924e-01 0.00000000e+00 
2.20374092e-01 -7.56155908e-01 0.00000000e+00 
2.30561137e-01 -6.34233832e-01 0.00000000e+00 
2.40748182e-01 -5.12311757e-01 0.00000000e+00 
1.50000006e-01 -9.13731158e-01 0.00000000e+00 
1.57640278e-01 -8.22289646e-01 0.00000000e+00 
1.65280566e-01 -7.30848074e-01 0.00000000e+00 
1.72920853e-01 -6.39406562e-01 0.00000000e+00 
1.80561140e-01 -5.47964990e-01 0.00000000e+00 
1.00000001e-01 -8.27462375e-01 0.00000000e+00 
1.05093524e-01 -7.66501307e-01 0.00000000e+00 
1.10187046e-01 -7.05540299e-01 0.00000000e+00 
1.15280569e-01 -6.44579291e-01 0.00000000e+00 
1.20374091e-01 -5.83618224e-01 0.00000000e+00 
5.00000007e-02 -7.41193533e-01 0.00000000e+00 
5.25467619e-02 -7.10713029e-01 0.00000000e+00 
5.50935231e-02 -6.80232525e-01 0.00000000e+00 
5.76402843e-02 -6.49751961e-01 0.00000000e+00 
6.01870455e-02 -6.19271457e-01 0.00000000e+00 
-4.76604867e-13 -6.54924691e-01 0.00000000e+00 
-4.76617010e-13 -6.54924691e-01 0.00000000e+00 
-4.76618744e-13 -6.54924691e-01 0.00000000e+00 
-4.76610071e-13 -6.54924691e-01 0.00000000e+00 
-4.76590989e-13 -6.54924691e-01 0.00000000e+00 

        </DataArray>
      </Points>
      <Cells>
        <DataArray type="Int32" Name="connectivity" format="ascii">
0 1 6 5
5 6 11 10
10 11 16 15
15 16 21 20
1 2 7 6
6 7 12 11
11 12 17 16
16 17 22 21
2 3 8 7
7 8 13 12
12 13 18 17
17 18 23 22
3 4 9 8
8 9 14 13
13 14 19 18
18 19 24 23

        </DataArray>
        <DataArray type="Int32" Name="offsets" format="ascii">
4 8 12 16 20 24 28 32 36 40 44 48 52 56 60 64 
        </DataArray>
        <DataArray type="UInt8" Name="types" format="ascii">
9 9 9 9 9 9 9 9 9 9 9 9 9 9 9 9 
        </DataArray>
      </Cells>
      <PointData>
        <DataArray type="Float64" Name="u">
          5.69082189e-01 3.88305053e-01 1.64874968e-02 -2.79116168e-01 -3.64834421e-01 6.96159248e-01 3.37146585e-01 -9.15356141e-02 -4.54262911e-01 -6.57677295e-01 4.37579781e-01 9.63818709e-02 -2.51844022e-01 -5.60134647e-01 -7.89875682e-01 -5.28707907e-02 -2.38996970e-01 -4.19110983e-01 -5.86495146e-01 -7.34953581e-01 -5.31442348e-01 -5.31442348e-01 -5.31442348e-01 -5.31442348e-01 -5.31442348e-01 
        </DataArray>
      </PointData>
    </Piece>
    <Piece NumberOfPoints="25" NumberOfCells="16">
      <Points>
        <DataArray type="Float64" NumberOfComponents="3" format="ascii">
          2.00000003e-01 -1.00000000e+00 0.00000000e+00 
3.00000012e-01 -1.00000000e+00 0.00000000e+00 
4.00000006e-01 -1.00000000e+00 0.00000000e+00 
5.00000000e-01 -1.00000000e+00 0.00000000e+00 
6.00000024e-01 -1.00000000e+00 0.00000000e+00 
2.77416945e-01 -9.03810143e-01 0.00000000e+00 
3.52416933e-01 -9.03810143e-01 0.00000000e+00 
4.27416950e-01 -9.03810143e-01 0.00000000e+00 
5.02416968e-01 -9.03810143e-01 0.00000000e+00 
5.77416956e-01 -9.03810143e-01 0.00000000e+00 
3.54833901e-01 -8.07620287e-01 0.00000000e+00 
4.04833883e-01 -8.07620287e-01 0.00000000e+00 
4.54833895e-01 -8.07620287e-01 0.00000000e+00 
5.04833877e-01 -8.07620287e-01 0.00000000e+00 
5.54833889e-01 -8.07620287e-01 0.00000000e+00 
4.32250828e-01 -7.11430371e-01 0.00000000e+00 
4.57250834e-01 -7.11430371e-01 0.00000000e+00 
4.82250839e-01 -7.11430371e-01 0.00000000e+00 
5.07250845e-01 -7.11430371e-01 0.00000000e+00 
5.32250822e-01 -7.11430371e-01 0.00000000e+00 
5.09667814e-01 -6.15240514e-01 0.00000000e+00 
5.09667814e-01 -6.15240514e-01 0.00000000e+00 
5.09667814e-01 -6.15240514e-01 0.00000000e+00 
5.09667814e-01 -6.15240514e-01 0.00000000e+00 
5.09667814e-01 -6.15240514e-01 0.00000000e+00 

        </DataArray>
      </Points>
      <Cells>
        <DataArray type="Int32" Name="connectivity" format="ascii">
0 1 6 5
5 6 11 10
10 11 16 15
15 16 21 20
1 2 7 6
6 7 12 11
11 12 17 16
16 17 22 21
2 3 8 7
7 8 13 12
12 13 18 17
17 18 23 22
3 4 9 8
8 9 14 13
13 14 19 18
18 19 24 23

        </DataArray>
        <DataArray type="Int32" Name="offsets" format="ascii">
4 8 12 16 20 24 28 32 36 40 44 48 52 56 60 64 
        </DataArray>
        <DataArray type="UInt8" Name="types" format="ascii">
9 9 9 9 9 9 9 9 9 9 9 9 9 9 9 9 
        </DataArray>
      </Cells>
      <PointData>
        <DataArray type="Float64" Name="u">
          6.21153713e-01 2.72834983e-02 -5.66398315e-01 -9.32101231e-01 -9.25330961e-01 1.06732807e-01 -2.70020777e-01 -5.92046925e-01 -7.88035439e-01 -8.13031560e-01 -1.01773941e-01 -2.01271577e-01 -2.82525198e-01 -3.31750721e-01 -3.40370073e-01 1.47739054e-01 1.74560626e-01 1.96834506e-01 2.15365596e-01 2.30633423e-01 8.00217305e-01 8.00217305e-01 8.00217305e-01 8.00217305e-01 8.00217305e-01 
        </DataArray>
      </PointData>
    </Piece>
    <Piece NumberOfPoints="25" NumberOfCells="16">
      <Points>
        <DataArray type="Float64" NumberOfComponents="3" format="ascii">
          -6.00000024e-01 -1.00000000e+00 0.00000000e+00 
-5.00000000e-01 -1.00000000e+00 0.00000000e+00 
-4.00000006e-01 -1.00000000e+00 0.00000000e+00 
-3.00000012e-01 -1.00000000e+00 0.00000000e+00 
-2.00000003e-01 -1.00000000e+00 0.00000000e+00 
-5.77416956e-01 -9.03810143e-01 0.00000000e+00 
-5.02416968e-01 -9.03810143e-01 0.00000000e+00 
-4.27416950e-01 -9.03810143e-01 0.00000000e+00 
-3.52416933e-01 -9.03810143e-01 0.00000000e+00 
-2.77416945e-01 -9.03810143e-01 0.00000000e+00 
-5.54833889e-01 -8.07620287e-01 0.00000000e+00 
-5.04833877e-01 -8.07620287e-01 0.00000000e+00 
-4.54833895e-01 -8.07620287e-01 0.00000000e+00 
-4.04833883e-01 -8.07620287e-01 0.00000000e+00 
-3.54833901e-01 -8.07620287e-01 0.00000000e+00 
-5.32250822e-01 -7.11430371e-01 0.00000000e+00 
-5.07250845e-01 -7.11430371e-01 0.00000000e+00 
-4.82250839e-01 -7.11430371e-01 0.00000000e+00 
-4.57250834e-01 -7.11430371e-01 0.00000000e+00 
-4.32250828e-01 -7.11430371e-01 0.00000000e+00 
-5.09667814e-01 -6.15240514e-01 0.00000000e+00 
-5.09667814e-01 -6.15240514e-01 0.00000000e+00 
-5.09667814e-01 -6.15240514e-01 0.00000000e+00 
-5.09667814e-01 -6.15240514e-01 0.00000000e+00 
-5.09667814e-01 -6.15240514e-01 0.00000000e+00 

        </DataArray>
      </Points>
      <Cells>
        <DataArray type="Int32" Name="connectivity" format="ascii">
0 1 6 5
5 6 11 10
10 11 16 15
15 16 21 20
1 2 7 6
6 7 12 11
11 12 17 16
16 17 22 21
2 3 8 7
7 8 13 12
12 13 18 17
17 18 23 22
3 4 9 8
8 9 14 13
13 14 19 18
18 19 24 23

        </DataArray>
        <DataArray type="Int32" Name="offsets" format="ascii">
4 8 12 16 20 24 28 32 36 40 44 48 52 56 60 64 
        </DataArray>
        <DataArray type="UInt8" Name="types" format="ascii">
9 9 9 9 9 9 9 9 9 9 9 9 9 9 9 9 
        </DataArray>
      </Cells>
      <PointData>
        <DataArray type="Float64" Name="u">
          -5.53333213e-01 -9.30684025e-01 -9.30472146e-01 -5.67902899e-01 2.93347708e-02 -5.77349271e-01 -7.81469667e-01 -8.15585249e-01 -6.74081151e-01 -3.86933029e-01 -2.68931118e-01 -3.25061147e-01 -3.48716180e-01 -3.34668223e-01 -2.84719509e-01 1.88713420e-01 2.09705745e-01 2.21983714e-01 2.26646368e-01 2.24353357e-01 7.77638959e-01 7.77638959e-01 7.77638959e-01 7.77638959e-01 7.77638959e-01 
        </DataArray>
      </PointData>
    </Piece>
    <Piece NumberOfPoints="25" NumberOfCells="16">
      <Points>
        <DataArray type="Float64" NumberOfComponents="3" format="ascii">
          6.66666687e-01 -2.50000000e-01 0.00000000e+00 
5.83333313e-01 -2.50000000e-01 0.00000000e+00 
5.00000000e-01 -2.50000000e-01 0.00000000e+00 
4.16666657e-01 -2.50000000e-01 0.00000000e+00 
3.33333343e-01 -2.50000000e-01 0.00000000e+00 
6.27416968e-01 -3.41310143e-01 0.00000000e+00 
5.64916968e-01 -3.41310143e-01 0.00000000e+00 
5.02416968e-01 -3.41310143e-01 0.00000000e+00 
4.39916939e-01 -3.41310143e-01 0.00000000e+00 
3.77416939e-01 -3.41310143e-01 0.00000000e+00 
5.88167250e-01 -4.32620257e-01 0.00000000e+00 
5.46500564e-01 -4.32620257e-01 0.00000000e+00 
5.04833877e-01 -4.32620257e-01 0.00000000e+00 
4.63167220e-01 -4.32620257e-01 0.00000000e+00 
4.21500564e-01 -4.32620257e-01 0.00000000e+00 
5.48917532e-01 -5.23930371e-01 0.00000000e+00 
5.28084159e-01 -5.23930371e-01 0.00000000e+00 
5.07250845e-01 -5.23930371e-01 0.00000000e+00 
4.86417502e-01 -5.23930371e-01 0.00000000e+00 
4.65584159e-01 -5.23930371e-01 0.00000000e+00 
5.09667814e-01 -6.15240514e-01 0.00000000e+00 
5.09667814e-01 -6.15240514e-01 0.00000000e+00 
5.09667814e-01 -6.15240514e-01 0.00000000e+00 
5.09667814e-01 -6.15240514e-01 0.00000000e+00 
5.09667814e-01 -6.15240514e-01 0.00000000e+00 

        </DataArray>
      </Points>
      <Cells>
        <DataArray type="Int32" Name="connectivity" format="ascii">
0 1 6 5
5 6 11 10
10 11 16 15
15 16 21 20
1 2 7 6
6 7 12 11
11 12 17 16
16 17 22 21
2 3 8 7
7 8 13 12
12 13 18 17
17 18 23 22
3 4 9 8
8 9 14 13
13 14 19 18
18 19 24 23

        </DataArray>
        <DataArray type="Int32" Name="offsets" format="ascii">
4 8 12 16 20 24 28 32 36 40 44 48 52 56 60 64 
        </DataArray>
        <DataArray type="UInt8" Name="types" format="ascii">
9 9 9 9 9 9 9 9 9 9 9 9 9 9 9 9 
        </DataArray>
      </Cells>
      <PointData>
        <DataArray type="Float64" Name="u">
          -1.15369423e-04 -4.73972214e-03 -5.45334180e-03 -5.85579978e-03 4.71223018e-03 4.81276694e-01 5.41962086e-01 5.19873139e-01 4.20545941e-01 2.54028183e-01 8.83215469e-01 9.08657448e-01 8.71834003e-01 7.76475723e-01 6.27204380e-01 9.88190386e-01 9.82183509e-01 9.57313431e-01 9.14307758e-01 8.53949797e-01 7.06883520e-01 7.06883520e-01 7.06883520e-01 7.06883520e-01 7.06883520e-01 
        </DataArray>
      </PointData>
    </Piece>
    <Piece NumberOfPoints="25" NumberOfCells="16">
      <Points>
        <DataArray type="Float64" NumberOfComponents="3" format="ascii">
          -3.33333343e-01 -2.50000000e-01 0.00000000e+00 
-4.16666657e-01 -2.50000000e-01 0.00000000e+00 
-5.00000000e-01 -2.50000000e-01 0.00000000e+00 
-5.83333313e-01 -2.50000000e-01 0.00000000e+00 
-6.66666687e-01 -2.50000000e-01 0.00000000e+00 
-3.77416939e-01 -3.41310143e-01 0.00000000e+00 
-4.39916939e-01 -3.41310143e-01 0.00000000e+00 
-5.02416968e-01 -3.41310143e-01 0.00000000e+00 
-5.64916968e-01 -3.41310143e-01 0.00000000e+00 
-6.27416968e-01 -3.41310143e-01 0.00000000e+00 
-4.21500564e-01 -4.32620257e-01 0.00000000e+00 
-4.63167220e-01 -4.32620257e-01 0.00000000e+00 
-5.04833877e-01 -4.32620257e-01 0.00000000e+00 
-5.46500564e-01 -4.32620257e-01 0.00000000e+00 
-5.88167250e-01 -4.32620257e-01 0.00000000e+00 
-4.65584159e-01 -5.23930371e-01 0.00000000e+00 
-4.86417502e-01 -5.23930371e-01 0.00000000e+00 
-5.07250845e-01 -5.23930371e-01 0.00000000e+00 
-5.28084159e-01 -5.23930371e-01 0.00000000e+00 
-5.48917532e-01 -5.23930371e-01 0.00000000e+00 
-5.09667814e-01 -6.15240514e-01 0.00000000e+00 
-5.09667814e-01 -6.15240514e-01 0.00000000e+00 
-5.09667814e-01 -6.15240514e-01 0.00000000e+00 
-5.09667814e-01 -6.15240514e-01 0.00000000e+00 
-5.09667814e-01 -6.15240514e-01 0.00000000e+00 

        </DataArray>
      </Points>
      <Cells>
        <DataArray type="Int32" Name="connectivity" format="ascii">
0 1 6 5
5 6 11 10
10 11 16 15
15 16 21 20
1 2 7 6
6 7 12 11
11 12 17 16
16 17 22 21
2 3 8 7
7 8 13 12
12 13 18 17
17 18 23 22
3 4 9 8
8 9 14 13
13 14 19 18
18 19 24 23

        </DataArray>
        <DataArray type="Int32" Name="offsets" format="ascii">
4 8 12 16 20 24 28 32 36 40 44 48 52 56 60 64 
        </DataArray>
        <DataArray type="UInt8" Name="types" format="ascii">
9 9 9 9 9 9 9 9 9 9 9 9 9 9 9 9 
        </DataArray>
      </Cells>
      <PointData>
        <DataArray type="Float64" Name="u">
          -4.60774158e-05 -5.06111784e-03 -5.75440279e-03 -6.09563986e-03 3.90098575e-03 4.88720921e-01 5.43135157e-01 5.14616575e-01 4.09573958e-01 2.38831703e-01 8.94768780e-01 9.05861123e-01 8.55108347e-01 7.46804464e-01 5.86115703e-01 9.85018438e-01 9.66986165e-01 9.30484436e-01 8.76349391e-01 8.05471684e-01 6.72132910e-01 6.72132910e-01 6.72132910e-01 6.72132910e-01 6.72132910e-01 
        </DataArray>
      </PointData>
    </Piece>
    <Piece NumberOfPoints="25" NumberOfCells="16">
      <Points>
        <DataArray type="Float64" NumberOfComponents="3" format="ascii">
          -2.00000003e-01 -1.00000000e+00 0.00000000e+00 
-1.00000001e-01 -1.00000000e+00 0.00000000e+00 
0.00000000e+00 -1.00000000e+00 0.00000000e+00 
1.00000001e-01 -1.00000000e+00 0.00000000e+00 
2.00000003e-01 -1.00000000e+00 0.00000000e+00 
-1.50000006e-01 -9.13731158e-01 0.00000000e+00 
-7.50000030e-02 -9.13731158e-01 0.00000000e+00 
-1.19149170e-13 -9.13731158e-01 0.00000000e+00 
7.50000030e-02 -9.13731158e-01 0.00000000e+00 
1.50000006e-01 -9.13731158e-01 0.00000000e+00 
-1.00000001e-01 -8.27462375e-01 0.00000000e+00 
-5.00000007e-02 -8.27462375e-01 0.00000000e+00 
-2.38296308e-13 -8.27462375e-01 0.00000000e+00 
5.00000007e-02 -8.27462375e-01 0.00000000e+00 
1.00000001e-01 -8.27462375e-01 0.00000000e+00 
-5.00000007e-02 -7.41193533e-01 0.00000000e+00 
-2.50000004e-02 -7.41193533e-01 0.00000000e+00 
-3.57441426e-13 -7.41193533e-01 0.00000000e+00 
2.50000004e-02 -7.41193533e-01 0.00000000e+00 
5.00000007e-02 -7.41193533e-01 0.00000000e+00 
-4.76590989e-13 -6.54924691e-01 0.00000000e+00 
-4.76584375e-13 -6.54924691e-01 0.00000000e+00 
-4.76584484e-13 -6.54924691e-01 0.00000000e+00 
-4.76591314e-13 -6.54924691e-01 0.00000000e+00 
-4.76604867e-13 -6.54924691e-01 0.00000000e+00 

        </DataArray>
      </Points>
      <Cells>
        <DataArray type="Int32" Name="connectivity" format="ascii">
0 1 6 5
5 6 11 10
10 11 16 15
15 16 21 20
1 2 7 6
6 7 12 11
11 12 17 16
16 17 22 21
2 3 8 7
7 8 13 12
12 13 18 17
17 18 23 22
3 4 9 8
8 9 14 13
13 14 19 18
18 19 24 23

        </DataArray>
        <DataArray type="Int32" Name="offsets" format="ascii">
4 8 12 16 20 24 28 32 36 40 44 48 52 56 60 64 
        </DataArray>
        <DataArray type="UInt8" Name="types" format="ascii">
9 9 9 9 9 9 9 9 9 9 9 9 9 9 9 9 
        </DataArray>
      </Cells>
      <PointData>
        <DataArray type="Float64" Name="u">
          -2.84316179e-02 5.68967261e-01 9.31057956e-01 9.30105917e-01 5.55780711e-01 2.71257590e-01 6.09958455e-01 8.18491473e-01 8.51062621e-01 6.99025275e-01 2.63175094e-01 3.67360564e-01 4.36767897e-01 4.60226714e-01 4.33904393e-01 -3.07525802e-02 -3.83801075e-02 -4.34087166e-02 -4.69349272e-02 -4.95966497e-02 -5.74804442e-01 -5.74804442e-01 -5.74804442e-01 -5.74804442e-01 -5.74804442e-01 
        </DataArray>
      </PointData>
    </Piece>
    <Piece NumberOfPoints="25" NumberOfCells="16">
      <Points>
        <DataArray type="Float64" NumberOfComponents="3" format="ascii">
          2.75224288e-12 -2.50000000e-01 0.00000000e+00 
-6.01870455e-02 -3.15577954e-01 0.00000000e+00 
-1.20374091e-01 -3.81155878e-01 0.00000000e+00 
-1.80561140e-01 -4.46733832e-01 0.00000000e+00 
-2.40748182e-01 -5.12311757e-01 0.00000000e+00 
1.94503571e-12 -3.51231188e-01 0.00000000e+00 
-4.51402850e-02 -4.00414646e-01 0.00000000e+00 
-9.02805701e-02 -4.49598104e-01 0.00000000e+00 
-1.35420859e-01 -4.98781562e-01 0.00000000e+00 
-1.80561140e-01 -5.47964990e-01 0.00000000e+00 
1.13782876e-12 -4.52462345e-01 0.00000000e+00 
-3.00935227e-02 -4.85251337e-01 0.00000000e+00 
-6.01870455e-02 -5.18040299e-01 0.00000000e+00 
-9.02805701e-02 -5.50829291e-01 0.00000000e+00 
-1.20374091e-01 -5.83618224e-01 0.00000000e+00 
3.30621652e-13 -5.53693533e-01 0.00000000e+00 
-1.50467614e-02 -5.70088029e-01 0.00000000e+00 
-3.00935227e-02 -5.86482525e-01 0.00000000e+00 
-4.51402850e-02 -6.02876961e-01 0.00000000e+00 
-6.01870455e-02 -6.19271457e-01 0.00000000e+00 
-4.76585459e-13 -6.54924691e-01 0.00000000e+00 
-4.76585459e-13 -6.54924691e-01 0.00000000e+00 
-4.76577111e-13 -6.54924691e-01 0.00000000e+00 
-4.76560469e-13 -6.54924691e-01 0.00000000e+00 
-4.76535478e-13 -6.54924691e-01 0.00000000e+00 

        </DataArray>
      </Points>
      <Cells>
        <DataArray type="Int32" Name="connectivity" format="ascii">
0 1 6 5
5 6 11 10
10 11 16 15
15 16 21 20
1 2 7 6
6 7 12 11
11 12 17 16
16 17 22 21
2 3 8 7
7 8 13 12
12 13 18 17
17 18 23 22
3 4 9 8
8 9 14 13
13 14 19 18
18 19 24 23

        </DataArray>
        <DataArray type="Int32" Name="offsets" format="ascii">
4 8 12 16 20 24 28 32 36 40 44 48 52 56 60 64 
        </DataArray>
        <DataArray type="UInt8" Name="types" format="ascii">
9 9 9 9 9 9 9 9 9 9 9 9 9 9 9 9 
        </DataArray>
      </Cells>
      <PointData>
        <DataArray type="Float64" Name="u">
          1.18762813e-02 -3.11539900e-01 -3.50640518e-01 -1.16043621e-01 2.54611336e-01 -5.66578392e-01 -6.68411502e-01 -6.02202826e-01 -3.95737230e-01 -1.16989948e-01 -9.06664488e-01 -8.70975861e-01 -7.66141939e-01 -6.07300571e-01 -4.17528446e-01 -9.01533845e-01 -8.34672395e-01 -7.54196181e-01 -6.62860594e-01 -5.63917206e-01 -5.19666017e-01 -5.19666017e-01 -5.19666017e-01 -5.19666017e-01 -5.19666017e-01 
        </DataArray>
      </PointData>
    </Piece>
    <Piece NumberOfPoints="25" NumberOfCells="16">
      <Points>
        <DataArray type="Float64" NumberOfComponents="3" format="ascii">
          2.75224288e-12 -2.50000000e-01 0.00000000e+00 
1.94503571e-12 -3.51231188e-01 0.00000000e+00 
1.13782876e-12 -4.52462345e-01 0.00000000e+00 
3.30621652e-13 -5.53693533e-01 0.00000000e+00 
-4.76585459e-13 -6.54924691e-01 0.00000000e+00 
6.01870455e-02 -3.15577954e-01 0.00000000e+00 
6.01870455e-02 -3.91501337e-01 0.00000000e+00 
6.01870455e-02 -4.67424721e-01 0.00000000e+00 
6.01870455e-02 -5.43348074e-01 0.00000000e+00 
6.01870455e-02 -6.19271457e-01 0.00000000e+00 
1.20374091e-01 -3.81155878e-01 0.00000000e+00 
1.20374091e-01 -4.31771487e-01 0.00000000e+00 
1.20374091e-01 -4.82387066e-01 0.00000000e+00 
1.20374091e-01 -5.33002675e-01 0.00000000e+00 
1.20374091e-01 -5.83618224e-01 0.00000000e+00 
1.80561140e-01 -4.46733832e-01 0.00000000e+00 
1.80561140e-01 -4.72041637e-01 0.00000000e+00 
1.80561140e-01 -4.97349411e-01 0.00000000e+00 
1.80561140e-01 -5.22657216e-01 0.00000000e+00 
1.80561140e-01 -5.47964990e-01 0.00000000e+00 
2.40748182e-01 -5.12311757e-01 0.00000000e+00 
2.40748182e-01 -5.12311757e-01 0.00000000e+00 
2.40748182e-01 -5.12311757e-01 0.00000000e+00 
2.40748182e-01 -5.12311757e-01 0.00000000e+00 
2.40748182e-01 -5.12311757e-01 0.00000000e+00 

        </DataArray>
      </Points>
      <Cells>
        <DataArray type="Int32" Name="connectivity" format="ascii">
0 1 6 5
5 6 11 10
10 11 16 15
15 16 21 20
1 2 7 6
6 7 12 11
11 12 17 16
16 17 22 21
2 3 8 7
7 8 13 12
12 13 18 17
17 18 23 22
3 4 9 8
8 9 14 13
13 14 19 18
18 19 24 23

        </DataArray>
        <DataArray type="Int32" Name="offsets" format="ascii">
4 8 12 16 20 24 28 32 36 40 44 48 52 56 60 64 
        </DataArray>
        <DataArray type="UInt8" Name="types" format="ascii">
9 9 9 9 9 9 9 9 9 9 9 9 9 9 9 9 
        </DataArray>
      </Cells>
      <PointData>
        <DataArray type="Float64" Name="u">
          -1.39118275e-03 -5.68023333e-01 -9.10426303e-01 -9.03973101e-01 -5.28585077e-01 -4.00220528e-01 -7.74274243e-01 -9.75015534e-01 -9.62747682e-01 -7.30853716e-01 -6.61958443e-01 -8.21905219e-01 -8.99552079e-01 -8.86953414e-01 -7.82697888e-01 -6.42543313e-01 -6.70991204e-01 -6.81470641e-01 -6.73465473e-01 -6.46867937e-01 -3.73815414e-01 -3.73815414e-01 -3.73815414e-01 -3.73815414e-01 -3.73815414e-01 
        </DataArray>
      </PointData>
    </Piece>
    <Piece NumberOfPoints="25" NumberOfCells="16">
      <Points>
        <DataArray type="Float64" NumberOfComponents="3" format="ascii">
          -3.33333343e-01 -2.50000000e-01 0.00000000e+00 
-3.77416939e-01 -3.41310143e-01 0.00000000e+00 
-4.21500564e-01 -4.32620257e-01 0.00000000e+00 
-4.65584159e-01 -5.23930371e-01 0.00000000e+00 
-5.09667814e-01 -6.15240514e-01 0.00000000e+00 
-3.10187042e-01 -3.15577954e-01 0.00000000e+00 
-3.43249768e-01 -3.84060532e-01 0.00000000e+00 
-3.76312464e-01 -4.52543139e-01 0.00000000e+00 
-4.09375161e-01 -5.21025717e-01 0.00000000e+00 
-4.42437887e-01 -5.89508355e-01 0.00000000e+00 
-2.87040770e-01 -3.81155878e-01 0.00000000e+00 
-3.09082568e-01 -4.26810950e-01 0.00000000e+00 
-3.31124365e-01 -4.72466022e-01 0.00000000e+00 
-3.53166193e-01 -5.18121064e-01 0.00000000e+00 
-3.75207990e-01 -5.63776135e-01 0.00000000e+00 
-2.63894469e-01 -4.46733832e-01 0.00000000e+00 
-2.74915367e-01 -4.69561368e-01 0.00000000e+00 
-2.85936266e-01 -4.92388904e-01 0.00000000e+00 
-2.96957195e-01 -5.15216410e-01 0.00000000e+00 
-3.07978094e-01 -5.38043976e-01 0.00000000e+00 
-2.40748182e-01 -5.12311757e-01 0.00000000e+00 
-2.40748182e-01 -5.12311757e-01 0.00000000e+00 
-2.40748182e-01 -5.12311757e-01 0.00000000e+00 
-2.40748182e-01 -5.12311757e-01 0.00000000e+00 
-2.40748182e-01 -5.12311757e-01 0.00000000e+00 

        </DataArray>
      </Points>
      <Cells>
        <DataArray type="Int32" Name="connectivity" format="ascii">
0 1 6 5
5 6 11 10
10 11 16 15
15 16 21 20
1 2 7 6
6 7 12 11
11 12 17 16
16 17 22 21
2 3 8 7
7 8 13 12
12 13 18 17
17 18 23 22
3 4 9 8
8 9 14 13
13 14 19 18
18 19 24 23

        </DataArray>
        <DataArray type="Int32" Name="offsets" format="ascii">
4 8 12 16 20 24 28 32 36 40 44 48 52 56 60 64 
        </DataArray>
        <DataArray type="UInt8" Name="types" format="ascii">
9 9 9 9 9 9 9 9 9 9 9 9 9 9 9 9 
        </DataArray>
      </Cells>
      <PointData>
        <DataArray type="Float64" Name="u">
          -7.53365280e-04 4.89954737e-01 8.94884167e-01 9.86801936e-01 6.88322087e-01 2.53264422e-01 5.86722711e-01 8.53274193e-01 9.57522267e-01 8.51482876e-01 3.82228802e-01 5.68594012e-01 7.21517674e-01 8.12872595e-01 8.23897021e-01 3.68345392e-01 4.43713717e-01 5.10941984e-01 5.66531601e-01 6.07569318e-01 2.52166236e-01 2.52166236e-01 2.52166236e-01 2.52166236e-01 2.52166236e-01 
        </DataArray>
      </PointData>
    </Piece>
    <Piece NumberOfPoints="25" NumberOfCells="16">
      <Points>
        <DataArray type="Float64" NumberOfComponents="3" format="ascii">
          3.33333343e-01 -2.50000000e-01 0.00000000e+00 
3.10187042e-01 -3.15577954e-01 0.00000000e+00 
2.87040770e-01 -3.81155878e-01 0.00000000e+00 
2.63894469e-01 -4.46733832e-01 0.00000000e+00 
2.40748182e-01 -5.12311757e-01 0.00000000e+00 
3.77416939e-01 -3.41310143e-01 0.00000000e+00 
3.60057235e-01 -3.90493572e-01 0.00000000e+00 
3.42697531e-01 -4.39677030e-01 0.00000000e+00 
3.25337797e-01 -4.88860488e-01 0.00000000e+00 
3.07978094e-01 -5.38043976e-01 0.00000000e+00 
4.21500564e-01 -4.32620257e-01 0.00000000e+00 
4.09927428e-01 -4.65409219e-01 0.00000000e+00 
3.98354262e-01 -4.98198211e-01 0.00000000e+00 
3.86781126e-01 -5.30987144e-01 0.00000000e+00 