<?xml version="1.0"?>
<VTKFile type="UnstructuredGrid" version="0.1" byte_order="LittleEndian">
  <UnstructuredGrid>
    <Piece NumberOfPoints="25" NumberOfCells="16">
      <Points>
        <DataArray type="Float64" NumberOfComponents="3" format="ascii">
          2.00000003e-01 -1.00000000e+00 0.00000000e+00 
2.77416945e-01 -9.03810143e-01 0.00000000e+00 
3.54833901e-01 -8.07620287e-01 0.00000000e+00 
4.32250828e-01 -7.11430371e-01 0.00000000e+00 
5.09667814e-01 -6.15240514e-01 0.00000000e+00 
2.10187048e-01 -8.78077924e-01 0.00000000e+00 
2.68249750e-01 -8.05935562e-01 0.00000000e+00 
3.26312453e-01 -7.33793139e-01 0.00000000e+00 
3.84375185e-01 -6.61650717e-01 0.00000000e+00 
4.42437887e-01 -5.89508355e-01 0.00000000e+00 
2.20374092e-01 -7.56155908e-01 0.00000000e+00 
2.59082556e-01 -7.08060980e-01 0.00000000e+00 
2.97791034e-01 -6.59965992e-01 0.00000000e+00 
3.36499512e-01 -6.11871064e-01 0.00000000e+00 
3.75207990e-01 -5.63776135e-01 0.00000000e+00 
2.30561137e-01 -6.34233832e-01 0.00000000e+00 
2.49915376e-01 -6.10186338e-01 0.00000000e+00 
2.69269615e-01 -5.86138904e-01 0.00000000e+00 
2.88623840e-01 -5.62091410e-01 0.00000000e+00 
3.07978094e-01 -5.38043976e-01 0.00000000e+00 
2.40748182e-01 -5.12311757e-01 0.00000000e+00 
2.40748182e-01 -5.12311757e-01 0.00000000e+00 
2.40748182e-01 -5.12311757e-01 0.00000000e+00 
2.40748182e-01 -5.12311757e-01 0.00000000e+00 
2.40748182e-01 -5.12311757e-01 0.00000000e+00 

        </DataArray>
      </Points>
      <Cells>
        <DataArray type="Int32" Name="connectivity" format="ascii">
0 1 6 5
5 6 11 10
10 11 16 15
15 16 21 20
1 2 7 6
6 7 12 11
11 12 17 16
16 17 22 21
2 3 8 7
7 8 13 12
12 13 18 17
17 18 23 22
3 4 9 8
8 9 14 13
13 14 19 18
18 19 24 23

        </DataArray>
        <DataArray type="Int32" Name="offsets" format="ascii">
4 8 12 16 20 24 28 32 36 40 44 48 52 56 60 64 
        </DataArray>
        <DataArray type="UInt8" Name="types" format="ascii">
9 9 9 9 9 9 9 9 9 9 9 9 9 9 9 9 
        </DataArray>
      </Cells>
      <PointData>
        <DataArray type="Float64" Name="u">
          5.71435281e-01 1.20015473e-01 -1.15543387e-01 1.66963546e-01 7.42271457e-01 3.88461950e-01 6.71106960e-02 1.44517568e-02 2.61749521e-01 6.73373678e-01 1.68047781e-02 -6.68969774e-02 -7.72920081e-03 1.75059547e-01 4.29253851e-01 -2.79753958e-01 -2.36895092e-01 -1.62956872e-01 -6.39093799e-02 5.22168763e-02 -3.63752641e-01 -3.63752641e-01 -3.63752641e-01 -3.63752641e-01 -3.63752641e-01 
        </DataArray>
      </PointData>
    </Piece>
    <Piece NumberOfPoints="25" NumberOfCells="16">
      <Points>
        <DataArray type="Float64" NumberOfComponents="3" format="ascii">
          -2.00000003e-01 -1.00000000e+00 0.00000000e+00 
-2.10187048e-01 -8.78077924e-01 0.00000000e+00 
-2.20374092e-01 -7.56155908e-01 0.00000000e+00 
-2.30561137e-01 -6.34233832e-01 0.00000000e+00 
-2.40748182e-01 -5.12311757e-01 0.00000000e+00 
-2.77416945e-01 -9.03810143e-01 0.00000000e+00 
-2.85057217e-01 -8.12368572e-01 0.00000000e+00 
-2.92697519e-01 -7.20927060e-01 0.00000000e+00 
-3.00337791e-01 -6.29485488e-01 0.00000000e+00 
-3.07978094e-01 -5.38043976e-01 0.00000000e+00 
-3.54833901e-01 -8.07620287e-01 0.00000000e+00 
-3.59927416e-01 -7.46659219e-01 0.00000000e+00 
-3.65020931e-01 -6.85698211e-01 0.00000000e+00 
-3.70114475e-01 -6.24737144e-01 0.00000000e+00 
-3.75207990e-01 -5.63776135e-01 0.00000000e+00 
-4.32250828e-01 -7.11430371e-01 0.00000000e+00 
-4.34797585e-01 -6.80949867e-01 0.00000000e+00 
-4.37344372e-01 -6.50469363e-01 0.00000000e+00 
-4.39891130e-01 -6.19988859e-01 0.00000000e+00 
-4.42437887e-01 -5.89508355e-01 0.00000000e+00 
-5.09667814e-01 -6.15240514e-01 0.00000000e+00 
-5.09667814e-01 -6.15240514e-01 0.00000000e+00 
-5.09667814e-01 -6.15240514e-01 0.00000000e+00 
-5.09667814e-01 -6.15240514e-01 0.00000000e+00 
-5.09667814e-01 -6.15240514e-01 0.00000000e+00 

        </DataArray>
      </Points>
      <Cells>
        <DataArray type="Int32" Name="connectivity" format="ascii">
0 1 6 5
5 6 11 10
10 11 16 15
15 16 21 20
1 2 7 6
6 7 12 11
11 12 17 16
16 17 22 21
2 3 8 7
7 8 13 12
12 13 18 17
17 18 23 22
3 4 9 8
8 9 14 13
13 14 19 18
18 19 24 23

        </DataArray>
        <DataArray type="Int32" Name="offsets" format="ascii">
4 8 12 16 20 24 28 32 36 40 44 48 52 56 60 64 
        </DataArray>
        <DataArray type="UInt8" Name="types" format="ascii">
9 9 9 9 9 9 9 9 9 9 9 9 9 9 9 9 
        </DataArray>
      </Cells>
      <PointData>
        <DataArray type="Float64" Name="u">
          2.89913615e-02 -5.20497738e-02 -6.39500585e-03 1.26980546e-01 2.51603516e-01 -3.89168359e-01 -1.88256913e-01 9.96540220e-02 4.00873874e-01 6.23519266e-01 -2.84671103e-01 1.44341406e-02 3.28409239e-01 6.18457596e-01 8.42188972e-01 2.30357483e-01 4.10053995e-01 5.79821562e-01 7.32690316e-01 8.61465785e-01 6.85842879e-01 6.85842879e-01 6.85842879e-01 6.85842879e-01 6.85842879e-01 
        </DataArray>
      </PointData>
    </Piece>
    <Piece NumberOfPoints="25" NumberOfCells="16">
      <Points>
        <DataArray type="Float64" NumberOfComponents="3" format="ascii">
          -2.00000003e-01 -1.00000000e+00 0.00000000e+00 
-1.50000006e-01 -9.13731158e-01 0.00000000e+00 
-1.00000001e-01 -8.27462375e-01 0.00000000e+00 
-5.00000007e-02 -7.41193533e-01 0.00000000e+00 
-4.76585459e-13 -6.54924691e-01 0.00000000e+00 
-2.10187048e-01 -8.78077924e-01 0.00000000e+00 
-1.72687054e-01 -8.13376307e-01 0.00000000e+00 
-1.35187045e-01 -7.48674691e-01 0.00000000e+00 
-9.76870507e-02 -6.83973074e-01 0.00000000e+00 
-6.01870455e-02 -6.19271457e-01 0.00000000e+00 
-2.20374092e-01 -7.56155908e-01 0.00000000e+00 
-1.95374101e-01 -7.13021457e-01 0.00000000e+00 
-1.70374095e-01 -6.69887066e-01 0.00000000e+00 
-1.45374089e-01 -6.26752675e-01 0.00000000e+00 
-1.20374091e-01 -5.83618224e-01 0.00000000e+00 
-2.30561137e-01 -6.34233832e-01 0.00000000e+00 
-2.18061134e-01 -6.12666607e-01 0.00000000e+00 
-2.05561146e-01 -5.91099441e-01 0.00000000e+00 
-1.93061143e-01 -5.69532216e-01 0.00000000e+00 
-1.80561140e-01 -5.47964990e-01 0.00000000e+00 
-2.40748182e-01 -5.12311757e-01 0.00000000e+00 
-2.40748182e-01 -5.12311757e-01 0.00000000e+00 
-2.40748182e-01 -5.12311757e-01 0.00000000e+00 
-2.40748182e-01 -5.12311757e-01 0.00000000e+00 
-2.40748182e-01 -5.12311757e-01 0.00000000e+00 

        </DataArray>
      </Points>
      <Cells>
        <DataArray type="Int32" Name="connectivity" format="ascii">
0 1 6 5
5 6 11 10
10 11 16 15
15 16 21 20
1 2 7 6
6 7 12 11
11 12 17 16
16 17 22 21
2 3 8 7
7 8 13 12
12 13 18 17
17 18 23 22
3 4 9 8
8 9 14 13
13 14 19 18
18 19 24 23

        </DataArray>
        <DataArray type="Int32" Name="offsets" format="ascii">
4 8 12 16 20 24 28 32 36 40 44 48 52 56 60 64 
        </DataArray>
        <DataArray type="UInt8" Name="types" format="ascii">
9 9 9 9 9 9 9 9 9 9 9 9 9 9 9 9 
        </DataArray>
      </Cells>
      <PointData>
        <DataArray type="Float64" Name="u">
          1.11779003e-03 2.65663933e-01 2.69317213e-01 -4.18072585e-02 -5.35008083e-01 -4.71957129e-02 6.40531725e-02 -2.95862167e-03 -2.36067145e-01 -5.64071378e-01 -5.07749998e-03 -5.84787043e-03 -8.64648535e-02 -2.32984571e-01 -4.19801502e-01 1.27790226e-01 8.71861540e-02 2.98115448e-02 -4.12981484e-02 -1.22378620e-01 2.47343218e-01 2.47343218e-01 2.47343218e-01 2.47343218e-01 2.47343218e-01 
        </DataArray>
      </PointData>
    </Piece>
    <Piece NumberOfPoints="25" NumberOfCells="16">
      <Points>
        <DataArray type="Float64" NumberOfComponents="3" format="ascii">
          2.00000003e-01 -1.00000000e+00 0.00000000e+00 
2.10187048e-01 -8.78077924e-01 0.00000000e+00 
2.20374092e-01 -7.56155908e-01 0.00000000e+00 
2.30561137e-01 -6.34233832e-01 0.00000000e+00 
2.40748182e-01 -5.12311757e-01 0.00000000e+00 
1.50000006e-01 -9.13731158e-01 0.00000000e+00 
1.57640278e-01 -8.22289646e-01 0.00000000e+00 
1.65280566e-01 -7.30848074e-01 0.00000000e+00 
1.72920853e-01 -6.39406562e-01 0.00000000e+00 
1.80561140e-01 -5.47964990e-01 0.00000000e+00 
1.00000001e-01 -8.27462375e-01 0.00000000e+00 
1.05093524e-01 -7.66501307e-01 0.00000000e+00 
1.10187046e-01 -7.05540299e-01 0.00000000e+00 
1.15280569e-01 -6.44579291e-01 0.00000000e+00 
1.20374091e-01 -5.83618224e-01 0.00000000e+00 
5.00000007e-02 -7.41193533e-01 0.00000000e+00 
5.25467619e-02 -7.10713029e-01 0.00000000e+00 
5.50935231e-02 -6.80232525e-01 0.00000000e+00 
5.76402843e-02 -6.49751961e-01 0.00000000e+00 
6.01870455e-02 -6.19271457e-01 0.00000000e+00 
-4.76604867e-13 -6.54924691e-01 0.00000000e+00 
-4.76617010e-13 -6.54924691e-01 0.00000000e+00 
-4.76618744e-13 -6.54924691e-01 0.00000000e+00 
-4.76610071e-13 -6.54924691e-01 0.00000000e+00 
-4.76590989e-13 -6.54924691e-01 0.00000000e+00 

        </DataArray>
      </Points>
      <Cells>
        <DataArray type="Int32" Name="connectivity" format="ascii">
0 1 6 5
5 6 11 10
10 11 16 15
15 16 21 20
1 2 7 6
6 7 12 11
11 12 17 16
16 17 22 21
2 3 8 7
7 8 13 12
12 13 18 17
17 18 23 22
3 4 9 8
8 9 14 13
13 14 19 18
18 19 24 23

        </DataArray>
        <DataArray type="Int32" Name="offsets" format="ascii">
4 8 12 16 20 24 28 32 36 40 44 48 52 56 60 64 
        </DataArray>
        <DataArray type="UInt8" Name="types" format="ascii">
9 9 9 9 9 9 9 9 9 9 9 9 9 9 9 9 
        </DataArray>
      </Cells>
      <PointData>
        <DataArray type="Float64" Name="u">
          5.71029604e-01 3.87779154e-01 1.74467619e-02 -2.79876442e-01 -3.63366048e-01 6.95288292e-01 3.37518451e-01 -9.06959739e-02 -4.54821070e-01 -6.58059662e-01 4.37432520e-01 9.70406814e-02 -2.51333241e-01 -5.60476839e-01 -7.90631873e-01 -5.28021736e-02 -2.38616095e-01 -4.18627673e-01 -5.86016543e-01 -7.34428225e-01 -5.29499868e-01 -5.29499868e-01 -5.29499868e-01 -5.29499868e-01 -5.29499868e-01 
        </DataArray>
      </PointData>
    </Piece>
    <Piece NumberOfPoints="25" NumberOfCells="16">
      <Points>
        <DataArray type="Float64" NumberOfComponents="3" format="ascii">
          2.00000003e-01 -1.00000000e+00 0.00000000e+00 
3.00000012e-01 -1.00000000e+00 0.00000000e+00 
4.00000006e-01 -1.00000000e+00 0.00000000e+00 
5.00000000e-01 -1.00000000e+00 0.00000000e+00 
6.00000024e-01 -1.00000000e+00 0.00000000e+00 
2.77416945e-01 -9.03810143e-01 0.00000000e+00 
3.52416933e-01 -9.03810143e-01 0.00000000e+00 
4.27416950e-01 -9.03810143e-01 0.00000000e+00 
5.02416968e-01 -9.03810143e-01 0.00000000e+00 
5.77416956e-01 -9.03810143e-01 0.00000000e+00 
3.54833901e-01 -8.07620287e-01 0.00000000e+00 
4.04833883e-01 -8.07620287e-01 0.00000000e+00 
4.54833895e-01 -8.07620287e-01 0.00000000e+00 
5.04833877e-01 -8.07620287e-01 0.00000000e+00 
5.54833889e-01 -8.07620287e-01 0.00000000e+00 
4.32250828e-01 -7.11430371e-01 0.00000000e+00 
4.57250834e-01 -7.11430371e-01 0.00000000e+00 
4.82250839e-01 -7.11430371e-01 0.00000000e+00 
5.07250845e-01 -7.11430371e-01 0.00000000e+00 
5.32250822e-01 -7.11430371e-01 0.00000000e+00 
5.09667814e-01 -6.15240514e-01 0.00000000e+00 
5.09667814e-01 -6.15240514e-01 0.00000000e+00 
5.09667814e-01 -6.15240514e-01 0.00000000e+00 
5.09667814e-01 -6.15240514e-01 0.00000000e+00 
5.09667814e-01 -6.15240514e-01 0.00000000e+00 

        </DataArray>
      </Points>
      <Cells>
        <DataArray type="Int32" Name="connectivity" format="ascii">
0 1 6 5
5 6 11 10
10 11 16 15
15 16 21 20
1 2 7 6
6 7 12 11
11 12 17 16
16 17 22 21
2 3 8 7
7 8 13 12
12 13 18 17
17 18 23 22
3 4 9 8
8 9 14 13
13 14 19 18
18 19 24 23

        </DataArray>
        <DataArray type="Int32" Name="offsets" format="ascii">
4 8 12 16 20 24 28 32 36 40 44 48 52 56 60 64 
        </DataArray>
        <DataArray type="UInt8" Name="types" format="ascii">
9 9 9 9 9 9 9 9 9 9 9 9 9 9 9 9 
        </DataArray>
      </Cells>
      <PointData>
        <DataArray type="Float64" Name="u">
          6.23053803e-01 2.86343258e-02 -5.65499533e-01 -9.31670193e-01 -9.25696610e-01 1.05707201e-01 -2.70541691e-01 -5.92602707e-01 -7.88592687e-01 -8.13047296e-01 -1.01145182e-01 -2.00549560e-01 -2.82243931e-01 -3.32090565e-01 -3.41170263e-01 1.49318836e-01 1.76056889e-01 1.98032674e-01 2.16118283e-01 2.30859652e-01 8.00598673e-01 8.00598673e-01 8.00598673e-01 8.00598673e-01 8.00598673e-01 
        </DataArray>
      </PointData>
    </Piece>
    <Piece NumberOfPoints="25" NumberOfCells="16">
      <Points>
        <DataArray type="Float64" NumberOfComponents="3" format="ascii">
          -6.00000024e-01 -1.00000000e+00 0.00000000e+00 
-5.00000000e-01 -1.00000000e+00 0.00000000e+00 
-4.00000006e-01 -1.00000000e+00 0.00000000e+00 
-3.00000012e-01 -1.00000000e+00 0.00000000e+00 
-2.00000003e-01 -1.00000000e+00 0.00000000e+00 
-5.77416956e-01 -9.03810143e-01 0.00000000e+00 
-5.02416968e-01 -9.03810143e-01 0.00000000e+00 
-4.27416950e-01 -9.03810143e-01 0.00000000e+00 
-3.52416933e-01 -9.03810143e-01 0.00000000e+00 
-2.77416945e-01 -9.03810143e-01 0.00000000e+00 
-5.54833889e-01 -8.07620287e-01 0.00000000e+00 
-5.04833877e-01 -8.07620287e-01 0.00000000e+00 
-4.54833895e-01 -8.07620287e-01 0.00000000e+00 
-4.04833883e-01 -8.07620287e-01 0.00000000e+00 
-3.54833901e-01 -8.07620287e-01 0.00000000e+00 
-5.32250822e-01 -7.11430371e-01 0.00000000e+00 
-5.07250845e-01 -7.11430371e-01 0.00000000e+00 
-4.82250839e-01 -7.11430371e-01 0.00000000e+00 
-4.57250834e-01 -7.11430371e-01 0.00000000e+00 
-4.32250828e-01 -7.11430371e-01 0.00000000e+00 
-5.09667814e-01 -6.15240514e-01 0.00000000e+00 
-5.09667814e-01 -6.15240514e-01 0.00000000e+00 
-5.09667814e-01 -6.15240514e-01 0.00000000e+00 
-5.09667814e-01 -6.15240514e-01 0.00000000e+00 
-5.09667814e-01 -6.15240514e-01 0.00000000e+00 

        </DataArray>
      </Points>
      <Cells>
        <DataArray type="Int32" Name="connectivity" format="ascii">
0 1 6 5
5 6 11 10
10 11 16 15
15 16 21 20
1 2 7 6
6 7 12 11
11 12 17 16
16 17 22 21
2 3 8 7
7 8 13 12
12 13 18 17
17 18 23 22
3 4 9 8
8 9 14 13
13 14 19 18
18 19 24 23

        </DataArray>
        <DataArray type="Int32" Name="offsets" format="ascii">
4 8 12 16 20 24 28 32 36 40 44 48 52 56 60 64 
        </DataArray>
        <DataArray type="UInt8" Name="types" format="ascii">
9 9 9 9 9 9 9 9 9 9 9 9 9 9 9 9 
        </DataArray>
      </Cells>
      <PointData>
        <DataArray type="Float64" Name="u">
          -5.45248598e-01 -9.22521935e-01 -9.21531219e-01 -5.57721970e-01 4.02844636e-02 -5.78490007e-01 -7.82565991e-01 -8.17094321e-01 -6.75976399e-01 -3.88923164e-01 -2.63179414e-01 -3.18290701e-01 -3.41779672e-01 -3.28101653e-01 -2.78785459e-01 1.79537451e-01 2.01556514e-01 2.14417932e-01 2.19281999e-01 2.16866918e-01 7.89268816e-01 7.89268816e-01 7.89268816e-01 7.89268816e-01 7.89268816e-01 
        </DataArray>
      </PointData>
    </Piece>
    <Piece NumberOfPoints="25" NumberOfCells="16">
      <Points>
        <DataArray type="Float64" NumberOfComponents="3" format="ascii">
          6.66666687e-01 -2.50000000e-01 0.00000000e+00 
5.83333313e-01 -2.50000000e-01 0.00000000e+00 
5.00000000e-01 -2.50000000e-01 0.00000000e+00 
4.16666657e-01 -2.50000000e-01 0.00000000e+00 
3.33333343e-01 -2.50000000e-01 0.00000000e+00 
6.27416968e-01 -3.41310143e-01 0.00000000e+00 
5.64916968e-01 -3.41310143e-01 0.00000000e+00 
5.02416968e-01 -3.41310143e-01 0.00000000e+00 
4.39916939e-01 -3.41310143e-01 0.00000000e+00 
3.77416939e-01 -3.41310143e-01 0.00000000e+00 
5.88167250e-01 -4.32620257e-01 0.00000000e+00 
5.46500564e-01 -4.32620257e-01 0.00000000e+00 
5.04833877e-01 -4.32620257e-01 0.00000000e+00 
4.63167220e-01 -4.32620257e-01 0.00000000e+00 
4.21500564e-01 -4.32620257e-01 0.00000000e+00 
5.48917532e-01 -5.23930371e-01 0.00000000e+00 
5.28084159e-01 -5.23930371e-01 0.00000000e+00 
5.07250845e-01 -5.23930371e-01 0.00000000e+00 
4.86417502e-01 -5.23930371e-01 0.00000000e+00 
4.65584159e-01 -5.23930371e-01 0.00000000e+00 
5.09667814e-01 -6.15240514e-01 0.00000000e+00 
5.09667814e-01 -6.15240514e-01 0.00000000e+00 
5.09667814e-01 -6.15240514e-01 0.00000000e+00 
5.09667814e-01 -6.15240514e-01 0.00000000e+00 
5.09667814e-01 -6.15240514e-01 0.00000000e+00 

        </DataArray>
      </Points>
      <Cells>
        <DataArray type="Int32" Name="connectivity" format="ascii">
0 1 6 5
5 6 11 10
10 11 16 15
15 16 21 20
1 2 7 6
6 7 12 11
11 12 17 16
16 17 22 21
2 3 8 7
7 8 13 12
12 13 18 17
17 18 23 22
3 4 9 8
8 9 14 13
13 14 19 18
18 19 24 23

        </DataArray>
        <DataArray type="Int32" Name="offsets" format="ascii">
4 8 12 16 20 24 28 32 36 40 44 48 52 56 60 64 
        </DataArray>
        <DataArray type="UInt8" Name="types" format="ascii">
9 9 9 9 9 9 9 9 9 9 9 9 9 9 9 9 
        </DataArray>
      </Cells>
      <PointData>
        <DataArray type="Float64" Name="u">
          -1.04809213e-03 -6.22879410e-03 -7.30750939e-03 -7.57483148e-03 3.65969777e-03 4.81718988e-01 5.42598771e-01 5.20673825e-01 4.21361222e-01 2.54501726e-01 8.82940519e-01 9.08411249e-01 8.71578130e-01 7.76062604e-01 6.26359925e-01 9.87991647e-01 9.81919165e-01 9.56976746e-01 9.13869120e-01 8.53355627e-01 7.07397676e-01 7.07397676e-01 7.07397676e-01 7.07397676e-01 7.07397676e-01 
        </DataArray>
      </PointData>
    </Piece>
    <Piece NumberOfPoints="25" NumberOfCells="16">
      <Points>
        <DataArray type="Float64" NumberOfComponents="3" format="ascii">
          -3.33333343e-01 -2.50000000e-01 0.00000000e+00 
-4.16666657e-01 -2.50000000e-01 0.00000000e+00 
-5.00000000e-01 -2.50000000e-01 0.00000000e+00 
-5.83333313e-01 -2.50000000e-01 0.00000000e+00 
-6.66666687e-01 -2.50000000e-01 0.00000000e+00 
-3.77416939e-01 -3.41310143e-01 0.00000000e+00 
-4.39916939e-01 -3.41310143e-01 0.00000000e+00 
-5.02416968e-01 -3.41310143e-01 0.00000000e+00 
-5.64916968e-01 -3.41310143e-01 0.00000000e+00 
-6.27416968e-01 -3.41310143e-01 0.00000000e+00 
-4.21500564e-01 -4.32620257e-01 0.00000000e+00 
-4.63167220e-01 -4.32620257e-01 0.00000000e+00 
-5.04833877e-01 -4.32620257e-01 0.00000000e+00 
-5.46500564e-01 -4.32620257e-01 0.00000000e+00 
-5.88167250e-01 -4.32620257e-01 0.00000000e+00 
-4.65584159e-01 -5.23930371e-01 0.00000000e+00 
-4.86417502e-01 -5.23930371e-01 0.00000000e+00 
-5.07250845e-01 -5.23930371e-01 0.00000000e+00 
-5.28084159e-01 -5.23930371e-01 0.00000000e+00 
-5.48917532e-01 -5.23930371e-01 0.00000000e+00 
-5.09667814e-01 -6.15240514e-01 0.00000000e+00 
-5.09667814e-01 -6.15240514e-01 0.00000000e+00 
-5.09667814e-01 -6.15240514e-01 0.00000000e+00 
-5.09667814e-01 -6.15240514e-01 0.00000000e+00 
-5.09667814e-01 -6.15240514e-01 0.00000000e+00 

        </DataArray>
      </Points>
      <Cells>
        <DataArray type="Int32" Name="connectivity" format="ascii">
0 1 6 5
5 6 11 10
10 11 16 15
15 16 21 20
1 2 7 6
6 7 12 11
11 12 17 16
16 17 22 21
2 3 8 7
7 8 13 12
12 13 18 17
17 18 23 22
3 4 9 8
8 9 14 13
13 14 19 18
18 19 24 23

        </DataArray>
        <DataArray type="Int32" Name="offsets" format="ascii">
4 8 12 16 20 24 28 32 36 40 44 48 52 56 60 64 
        </DataArray>
        <DataArray type="UInt8" Name="types" format="ascii">
9 9 9 9 9 9 9 9 9 9 9 9 9 9 9 9 
        </DataArray>
      </Cells>
      <PointData>
        <DataArray type="Float64" Name="u">
          -3.04094232e-03 -8.85645997e-03 -1.02204885e-02 -1.07238423e-02 -2.46827401e-04 4.89754104e-01 5.44435875e-01 5.16095931e-01 4.11139405e-01 2.40309521e-01 8.92899285e-01 9.03826812e-01 8.52982911e-01 7.44612066e-01 5.83815672e-01 9.85886062e-01 9.67849358e-01 9.31436205e-01 8.77470497e-01 8.06829686e-01 6.78202574e-01 6.78202574e-01 6.78202574e-01 6.78202574e-01 6.78202574e-01 
        </DataArray>
      </PointData>
    </Piece>
    <Piece NumberOfPoints="25" NumberOfCells="16">
      <Points>
        <DataArray type="Float64" NumberOfComponents="3" format="ascii">
          -2.00000003e-01 -1.00000000e+00 0.00000000e+00 
-1.00000001e-01 -1.00000000e+00 0.00000000e+00 
0.00000000e+00 -1.00000000e+00 0.00000000e+00 
1.00000001e-01 -1.00000000e+00 0.00000000e+00 
2.00000003e-01 -1.00000000e+00 0.00000000e+00 
-1.50000006e-01 -9.13731158e-01 0.00000000e+00 
-7.50000030e-02 -9.13731158e-01 0.00000000e+00 
-1.19149170e-13 -9.13731158e-01 0.00000000e+00 
7.50000030e-02 -9.13731158e-01 0.00000000e+00 
1.50000006e-01 -9.13731158e-01 0.00000000e+00 
-1.00000001e-01 -8.27462375e-01 0.00000000e+00 
-5.00000007e-02 -8.27462375e-01 0.00000000e+00 
-2.38296308e-13 -8.27462375e-01 0.00000000e+00 
5.00000007e-02 -8.27462375e-01 0.00000000e+00 
1.00000001e-01 -8.27462375e-01 0.00000000e+00 
-5.00000007e-02 -7.41193533e-01 0.00000000e+00 
-2.50000004e-02 -7.41193533e-01 0.00000000e+00 
-3.57441426e-13 -7.41193533e-01 0.00000000e+00 
2.50000004e-02 -7.41193533e-01 0.00000000e+00 
5.00000007e-02 -7.41193533e-01 0.00000000e+00 
-4.76590989e-13 -6.54924691e-01 0.00000000e+00 
-4.76584375e-13 -6.54924691e-01 0.00000000e+00 
-4.76584484e-13 -6.54924691e-01 0.00000000e+00 
-4.76591314e-13 -6.54924691e-01 0.00000000e+00 
-4.76604867e-13 -6.54924691e-01 0.00000000e+00 

        </DataArray>
      </Points>
      <Cells>
        <DataArray type="Int32" Name="connectivity" format="ascii">
0 1 6 5
5 6 11 10
10 11 16 15
15 16 21 20
1 2 7 6
6 7 12 11
11 12 17 16
16 17 22 21
2 3 8 7
7 8 13 12
12 13 18 17
17 18 23 22
3 4 9 8
8 9 14 13
13 14 19 18
18 19 24 23

        </DataArray>
        <DataArray type="Int32" Name="offsets" format="ascii">
4 8 12 16 20 24 28 32 36 40 44 48 52 56 60 64 
        </DataArray>
        <DataArray type="UInt8" Name="types" format="ascii">
9 9 9 9 9 9 9 9 9 9 9 9 9 9 9 9 
        </DataArray>
      </Cells>
      <PointData>
        <DataArray type="Float64" Name="u">
          -2.92299435e-02 5.68458726e-01 9.31533994e-01 9.31697354e-01 5.58095497e-01 2.72131456e-01 6.10058402e-01 8.18198329e-01 8.50518036e-01 6.98144718e-01 2.62661856e-01 3.66883820e-01 4.36458318e-01 4.60143728e-01 4.34038755e-01 -3.11034622e-02 -3.85894942e-02 -4.34621243e-02 -4.68268242e-02 -4.93302953e-02 -5.73485814e-01 -5.73485814e-01 -5.73485814e-01 -5.73485814e-01 -5.73485814e-01 
        </DataArray>
      </PointData>
    </Piece>
    <Piece NumberOfPoints="25" NumberOfCells="16">
      <Points>
        <DataArray type="Float64" NumberOfComponents="3" format="ascii">
          2.75224288e-12 -2.50000000e-01 0.00000000e+00 
-6.01870455e-02 -3.15577954e-01 0.00000000e+00 
-1.20374091e-01 -3.81155878e-01 0.00000000e+00 
-1.80561140e-01 -4.46733832e-01 0.00000000e+00 
-2.40748182e-01 -5.12311757e-01 0.00000000e+00 
1.94503571e-12 -3.51231188e-01 0.00000000e+00 
-4.51402850e-02 -4.00414646e-01 0.00000000e+00 
-9.02805701e-02 -4.49598104e-01 0.00000000e+00 
-1.35420859e-01 -4.98781562e-01 0.00000000e+00 
-1.80561140e-01 -5.47964990e-01 0.00000000e+00 
1.13782876e-12 -4.52462345e-01 0.00000000e+00 
-3.00935227e-02 -4.85251337e-01 0.00000000e+00 
-6.01870455e-02 -5.18040299e-01 0.00000000e+00 
-9.02805701e-02 -5.50829291e-01 0.00000000e+00 
-1.20374091e-01 -5.83618224e-01 0.00000000e+00 
3.30621652e-13 -5.53693533e-01 0.00000000e+00 
-1.50467614e-02 -5.70088029e-01 0.00000000e+00 
-3.00935227e-02 -5.86482525e-01 0.00000000e+00 
-4.51402850e-02 -6.02876961e-01 0.00000000e+00 
-6.01870455e-02 -6.19271457e-01 0.00000000e+00 
-4.76585459e-13 -6.54924691e-01 0.00000000e+00 
-4.76585459e-13 -6.54924691e-01 0.00000000e+00 
-4.76577111e-13 -6.54924691e-01 0.00000000e+00 
-4.76560469e-13 -6.54924691e-01 0.00000000e+00 
-4.76535478e-13 -6.54924691e-01 0.00000000e+00 

        </DataArray>
      </Points>
      <Cells>
        <DataArray type="Int32" Name="connectivity" format="ascii">
0 1 6 5
5 6 11 10
10 11 16 15
15 16 21 20
1 2 7 6
6 7 12 11
11 12 17 16
16 17 22 21
2 3 8 7
7 8 13 12
12 13 18 17
17 18 23 22
3 4 9 8
8 9 14 13
13 14 19 18
18 19 24 23

        </DataArray>
        <DataArray type="Int32" Name="offsets" format="ascii">
4 8 12 16 20 24 28 32 36 40 44 48 52 56 60 64 
        </DataArray>
        <DataArray type="UInt8" Name="types" format="ascii">
9 9 9 9 9 9 9 9 9 9 9 9 9 9 9 9 
        </DataArray>
      </Cells>
      <PointData>
        <DataArray type="Float64" Name="u">
          1.40160611e-02 -3.13441899e-01 -3.50243637e-01 -1.15604287e-01 2.54119342e-01 -5.67167445e-01 -6.67679609e-01 -6.01601827e-01 -3.96459853e-01 -1.16843802e-01 -9.05809211e-01 -8.70695716e-01 -7.66898921e-01 -6.08328492e-01 -4.16215451e-01 -9.02236218e-01 -8.35670417e-01 -7.54956109e-01 -6.62551238e-01 -5.61371333e-01 -5.16729745e-01 -5.16729745e-01 -5.16729745e-01 -5.16729745e-01 -5.16729745e-01 
        </DataArray>
      </PointData>
    </Piece>
    <Piece NumberOfPoints="25" NumberOfCells="16">
      <Points>
        <DataArray type="Float64" NumberOfComponents="3" format="ascii">
          2.75224288e-12 -2.50000000e-01 0.00000000e+00 
1.94503571e-12 -3.51231188e-01 0.00000000e+00 
1.13782876e-12 -4.52462345e-01 0.00000000e+00 
3.30621652e-13 -5.53693533e-01 0.00000000e+00 
-4.76585459e-13 -6.54924691e-01 0.00000000e+00 
6.01870455e-02 -3.15577954e-01 0.00000000e+00 
6.01870455e-02 -3.91501337e-01 0.00000000e+00 
6.01870455e-02 -4.67424721e-01 0.00000000e+00 
6.01870455e-02 -5.43348074e-01 0.00000000e+00 
6.01870455e-02 -6.19271457e-01 0.00000000e+00 
1.20374091e-01 -3.81155878e-01 0.00000000e+00 
1.20374091e-01 -4.31771487e-01 0.00000000e+00 
1.20374091e-01 -4.82387066e-01 0.00000000e+00 
1.20374091e-01 -5.33002675e-01 0.00000000e+00 
1.20374091e-01 -5.83618224e-01 0.00000000e+00 
1.80561140e-01 -4.46733832e-01 0.00000000e+00 
1.80561140e-01 -4.72041637e-01 0.00000000e+00 
1.80561140e-01 -4.97349411e-01 0.00000000e+00 
1.80561140e-01 -5.22657216e-01 0.00000000e+00 
1.80561140e-01 -5.47964990e-01 0.00000000e+00 
2.40748182e-01 -5.12311757e-01 0.00000000e+00 
2.40748182e-01 -5.12311757e-01 0.00000000e+00 
2.40748182e-01 -5.12311757e-01 0.00000000e+00 
2.40748182e-01 -5.12311757e-01 0.00000000e+00 
2.40748182e-01 -5.12311757e-01 0.00000000e+00 

        </DataArray>
      </Points>
      <Cells>
        <DataArray type="Int32" Name="connectivity" format="ascii">
0 1 6 5
5 6 11 10
10 11 16 15
15 16 21 20
1 2 7 6
6 7 12 11
11 12 17 16
16 17 22 21
2 3 8 7
7 8 13 12
12 13 18 17
17 18 23 22
3 4 9 8
8 9 14 13
13 14 19 18
18 19 24 23

        </DataArray>
        <DataArray type="Int32" Name="offsets" format="ascii">
4 8 12 16 20 24 28 32 36 40 44 48 52 56 60 64 
        </DataArray>
        <DataArray type="UInt8" Name="types" format="ascii">
9 9 9 9 9 9 9 9 9 9 9 9 9 9 9 9 
        </DataArray>
      </Cells>
      <PointData>
        <DataArray type="Float64" Name="u">
          7.35466725e-04 -5.68605459e-01 -9.09551290e-01 -9.04687062e-01 -5.25556271e-01 -4.01174462e-01 -7.74046179e-01 -9.74169972e-01 -9.63314089e-01 -7.31393787e-01 -6.62066318e-01 -8.21161113e-01 -8.98886043e-01 -8.87262124e-01 -7.83870275e-01 -6.41730981e-01 -6.70190830e-01 -6.80931227e-01 -6.73373418e-01 -6.47286142e-01 -3.73471353e-01 -3.73471353e-01 -3.73471353e-01 -3.73471353e-01 -3.73471353e-01 
        </DataArray>
      </PointData>
    </Piece>
    <Piece NumberOfPoints="25" NumberOfCells="16">
      <Points>
        <DataArray type="Float64" NumberOfComponents="3" format="ascii">
          -3.33333343e-01 -2.50000000e-01 0.00000000e+00 
-3.77416939e-01 -3.41310143e-01 0.00000000e+00 
-4.21500564e-01 -4.32620257e-01 0.00000000e+00 
-4.65584159e-01 -5.23930371e-01 0.00000000e+00 
-5.09667814e-01 -6.15240514e-01 0.00000000e+00 
-3.10187042e-01 -3.15577954e-01 0.00000000e+00 
-3.43249768e-01 -3.84060532e-01 0.00000000e+00 
-3.76312464e-01 -4.52543139e-01 0.00000000e+00 
-4.09375161e-01 -5.21025717e-01 0.00000000e+00 
-4.42437887e-01 -5.89508355e-01 0.00000000e+00 
-2.87040770e-01 -3.81155878e-01 0.00000000e+00 
-3.09082568e-01 -4.26810950e-01 0.00000000e+00 
-3.31124365e-01 -4.72466022e-01 0.00000000e+00 
-3.53166193e-01 -5.18121064e-01 0.00000000e+00 
-3.75207990e-01 -5.63776135e-01 0.00000000e+00 
-2.63894469e-01 -4.46733832e-01 0.00000000e+00 
-2.74915367e-01 -4.69561368e-01 0.00000000e+00 
-2.85936266e-01 -4.92388904e-01 0.00000000e+00 
-2.96957195e-01 -5.15216410e-01 0.00000000e+00 
-3.07978094e-01 -5.38043976e-01 0.00000000e+00 
-2.40748182e-01 -5.12311757e-01 0.00000000e+00 
-2.40748182e-01 -5.12311757e-01 0.00000000e+00 
-2.40748182e-01 -5.12311757e-01 0.00000000e+00 
-2.40748182e-01 -5.12311757e-01 0.00000000e+00 
-2.40748182e-01 -5.12311757e-01 0.00000000e+00 

        </DataArray>
      </Points>
      <Cells>
        <DataArray type="Int32" Name="connectivity" format="ascii">
0 1 6 5
5 6 11 10
10 11 16 15
15 16 21 20
1 2 7 6
6 7 12 11
11 12 17 16
16 17 22 21
2 3 8 7
7 8 13 12
12 13 18 17
17 18 23 22
3 4 9 8
8 9 14 13
13 14 19 18
18 19 24 23

        </DataArray>
        <DataArray type="Int32" Name="offsets" format="ascii">
4 8 12 16 20 24 28 32 36 40 44 48 52 56 60 64 
        </DataArray>
        <DataArray type="UInt8" Name="types" format="ascii">
9 9 9 9 9 9 9 9 9 9 9 9 9 9 9 9 
        </DataArray>
      </Cells>
      <PointData>
        <DataArray type="Float64" Name="u">
          -3.01695289e-03 4.90797693e-01 8.93180812e-01 9.87584376e-01 6.94682115e-01 2.54202135e-01 5.86427388e-01 8.51619483e-01 9.57864357e-01 8.56665769e-01 3.82272121e-01 5.67623085e-01 7.20260442e-01 8.12785103e-01 8.26374336e-01 3.67681926e-01 4.42875140e-01 5.10163063e-01 5.66100148e-01 6.07776870e-01 2.51523278e-01 2.51523278e-01 2.51523278e-01 2.51523278e-01 2.51523278e-01 
        </DataArray>
      </PointData>
    </Piece>
    <Piece NumberOfPoints="25" NumberOfCells="16">
      <Points>
        <DataArray type="Float64" NumberOfComponents="3" format="ascii">
          3.33333343e-01 -2.50000000e-01 0.00000000e+00 
3.10187042e-01 -3.15577954e-01 0.00000000e+00 
2.87040770e-01 -3.81155878e-01 0.00000000e+00 
2.63894469e-01 -4.46733832e-01 0.00000000e+00 
2.40748182e-01 -5.12311757e-01 0.00000000e+00 
3.77416939e-01 -3.41310143e-01 0.00000000e+00 
3.60057235e-01 -3.90493572e-01 0.00000000e+00 
3.42697531e-01 -4.39677030e-01 0.00000000e+00 
3.25337797e-01 -4.88860488e-01 0.00000000e+00 
3.07978094e-01 -5.38043976e-01 0.00000000e+00 
4.21500564e-01 -4.32620257e-01 0.00000000e+00 
4.09927428e-01 -4.65409219e-01 0.00000000e+00 
3.98354262e-01 -4.98198211e-01 0.00000000e+00 
3.86781126e-01 -5.30987144e-01 0.00000000e+00 