<?xml version="1.0"?>
<VTKFile type="UnstructuredGrid" version="0.1" byte_order="LittleEndian">
  <UnstructuredGrid>
    <Piece NumberOfPoints="25" NumberOfCells="16">
      <Points>
        <DataArray type="Float64" NumberOfComponents="3" format="ascii">
          2.00000003e-01 -1.00000000e+00 0.00000000e+00 
2.77416945e-01 -9.03810143e-01 0.00000000e+00 
3.54833901e-01 -8.07620287e-01 0.00000000e+00 
4.32250828e-01 -7.11430371e-01 0.00000000e+00 
5.09667814e-01 -6.15240514e-01 0.00000000e+00 
2.10187048e-01 -8.78077924e-01 0.00000000e+00 
2.68249750e-01 -8.05935562e-01 0.00000000e+00 
3.26312453e-01 -7.33793139e-01 0.00000000e+00 
3.84375185e-01 -6.61650717e-01 0.00000000e+00 
4.42437887e-01 -5.89508355e-01 0.00000000e+00 
2.20374092e-01 -7.56155908e-01 0.00000000e+00 
2.59082556e-01 -7.08060980e-01 0.00000000e+00 
2.97791034e-01 -6.59965992e-01 0.00000000e+00 
3.36499512e-01 -6.11871064e-01 0.00000000e+00 
3.75207990e-01 -5.63776135e-01 0.00000000e+00 
2.30561137e-01 -6.34233832e-01 0.00000000e+00 
2.49915376e-01 -6.10186338e-01 0.00000000e+00 
2.69269615e-01 -5.86138904e-01 0.00000000e+00 
2.88623840e-01 -5.62091410e-01 0.00000000e+00 
3.07978094e-01 -5.38043976e-01 0.00000000e+00 
2.40748182e-01 -5.12311757e-01 0.00000000e+00 
2.40748182e-01 -5.12311757e-01 0.00000000e+00 
2.40748182e-01 -5.12311757e-01 0.00000000e+00 
2.40748182e-01 -5.12311757e-01 0.00000000e+00 
2.40748182e-01 -5.12311757e-01 0.00000000e+00 

        </DataArray>
      </Points>
      <Cells>
        <DataArray type="Int32" Name="connectivity" format="ascii">
0 1 6 5
5 6 11 10
10 11 16 15
15 16 21 20
1 2 7 6
6 7 12 11
11 12 17 16
16 17 22 21
2 3 8 7
7 8 13 12
12 13 18 17
17 18 23 22
3 4 9 8
8 9 14 13
13 14 19 18
18 19 24 23

        </DataArray>
        <DataArray type="Int32" Name="offsets" format="ascii">
4 8 12 16 20 24 28 32 36 40 44 48 52 56 60 64 
        </DataArray>
        <DataArray type="UInt8" Name="types" format="ascii">
9 9 9 9 9 9 9 9 9 9 9 9 9 9 9 9 
        </DataArray>
      </Cells>
      <PointData>
        <DataArray type="Float64" Name="u">
          9.12817803e-01 8.13711625e-01 2.77468271e-01 -9.92384944e-02 6.35552662e-02 6.97886497e-01 3.36893926e-01 -8.91473732e-02 -3.50778293e-01 -2.87108069e-01 3.77246995e-02 -2.57481489e-01 -5.08038102e-01 -6.52553594e-01 -6.43180782e-01 -6.58451359e-01 -7.69465274e-01 -8.52630172e-01 -9.01096651e-01 -9.08861834e-01 -9.92456356e-01 -9.92456356e-01 -9.92456356e-01 -9.92456356e-01 -9.92456356e-01 
        </DataArray>
      </PointData>
    </Piece>
    <Piece NumberOfPoints="25" NumberOfCells="16">
      <Points>
        <DataArray type="Float64" NumberOfComponents="3" format="ascii">
          -2.00000003e-01 -1.00000000e+00 0.00000000e+00 
-2.10187048e-01 -8.78077924e-01 0.00000000e+00 
-2.20374092e-01 -7.56155908e-01 0.00000000e+00 
-2.30561137e-01 -6.34233832e-01 0.00000000e+00 
-2.40748182e-01 -5.12311757e-01 0.00000000e+00 
-2.77416945e-01 -9.03810143e-01 0.00000000e+00 
-2.85057217e-01 -8.12368572e-01 0.00000000e+00 
-2.92697519e-01 -7.20927060e-01 0.00000000e+00 
-3.00337791e-01 -6.29485488e-01 0.00000000e+00 
-3.07978094e-01 -5.38043976e-01 0.00000000e+00 
-3.54833901e-01 -8.07620287e-01 0.00000000e+00 
-3.59927416e-01 -7.46659219e-01 0.00000000e+00 
-3.65020931e-01 -6.85698211e-01 0.00000000e+00 
-3.70114475e-01 -6.24737144e-01 0.00000000e+00 
-3.75207990e-01 -5.63776135e-01 0.00000000e+00 
-4.32250828e-01 -7.11430371e-01 0.00000000e+00 
-4.34797585e-01 -6.80949867e-01 0.00000000e+00 
-4.37344372e-01 -6.50469363e-01 0.00000000e+00 
-4.39891130e-01 -6.19988859e-01 0.00000000e+00 
-4.42437887e-01 -5.89508355e-01 0.00000000e+00 
-5.09667814e-01 -6.15240514e-01 0.00000000e+00 
-5.09667814e-01 -6.15240514e-01 0.00000000e+00 
-5.09667814e-01 -6.15240514e-01 0.00000000e+00 
-5.09667814e-01 -6.15240514e-01 0.00000000e+00 
-5.09667814e-01 -6.15240514e-01 0.00000000e+00 

        </DataArray>
      </Points>
      <Cells>
        <DataArray type="Int32" Name="connectivity" format="ascii">
0 1 6 5
5 6 11 10
10 11 16 15
15 16 21 20
1 2 7 6
6 7 12 11
11 12 17 16
16 17 22 21
2 3 8 7
7 8 13 12
12 13 18 17
17 18 23 22
3 4 9 8
8 9 14 13
13 14 19 18
18 19 24 23

        </DataArray>
        <DataArray type="Int32" Name="offsets" format="ascii">
4 8 12 16 20 24 28 32 36 40 44 48 52 56 60 64 
        </DataArray>
        <DataArray type="UInt8" Name="types" format="ascii">
9 9 9 9 9 9 9 9 9 9 9 9 9 9 9 9 
        </DataArray>
      </Cells>
      <PointData>
        <DataArray type="Float64" Name="u">
          -9.20610334e-01 -7.00643581e-01 -3.96825852e-02 6.57878904e-01 9.94569071e-01 -8.10103223e-01 -3.64188658e-01 1.71248458e-01 6.48172924e-01 9.20739686e-01 -2.73590265e-01 9.31909378e-03 2.84610339e-01 5.15108126e-01 6.64069733e-01 9.54400389e-02 1.63842204e-01 2.24252074e-01 2.72858598e-01 3.05877764e-01 -6.00939174e-02 -6.00939174e-02 -6.00939174e-02 -6.00939174e-02 -6.00939174e-02 
        </DataArray>
      </PointData>
    </Piece>
    <Piece NumberOfPoints="25" NumberOfCells="16">
      <Points>
        <DataArray type="Float64" NumberOfComponents="3" format="ascii">
          -2.00000003e-01 -1.00000000e+00 0.00000000e+00 
-1.50000006e-01 -9.13731158e-01 0.00000000e+00 
-1.00000001e-01 -8.27462375e-01 0.00000000e+00 
-5.00000007e-02 -7.41193533e-01 0.00000000e+00 
-4.76585459e-13 -6.54924691e-01 0.00000000e+00 
-2.10187048e-01 -8.78077924e-01 0.00000000e+00 
-1.72687054e-01 -8.13376307e-01 0.00000000e+00 
-1.35187045e-01 -7.48674691e-01 0.00000000e+00 
-9.76870507e-02 -6.83973074e-01 0.00000000e+00 
-6.01870455e-02 -6.19271457e-01 0.00000000e+00 
-2.20374092e-01 -7.56155908e-01 0.00000000e+00 
-1.95374101e-01 -7.13021457e-01 0.00000000e+00 
-1.70374095e-01 -6.69887066e-01 0.00000000e+00 
-1.45374089e-01 -6.26752675e-01 0.00000000e+00 
-1.20374091e-01 -5.83618224e-01 0.00000000e+00 
-2.30561137e-01 -6.34233832e-01 0.00000000e+00 
-2.18061134e-01 -6.12666607e-01 0.00000000e+00 
-2.05561146e-01 -5.91099441e-01 0.00000000e+00 
-1.93061143e-01 -5.69532216e-01 0.00000000e+00 
-1.80561140e-01 -5.47964990e-01 0.00000000e+00 
-2.40748182e-01 -5.12311757e-01 0.00000000e+00 
-2.40748182e-01 -5.12311757e-01 0.00000000e+00 
-2.40748182e-01 -5.12311757e-01 0.00000000e+00 
-2.40748182e-01 -5.12311757e-01 0.00000000e+00 
-2.40748182e-01 -5.12311757e-01 0.00000000e+00 

        </DataArray>
      </Points>
      <Cells>
        <DataArray type="Int32" Name="connectivity" format="ascii">
0 1 6 5
5 6 11 10
10 11 16 15
15 16 21 20
1 2 7 6
6 7 12 11
11 12 17 16
16 17 22 21
2 3 8 7
7 8 13 12
12 13 18 17
17 18 23 22
3 4 9 8
8 9 14 13
13 14 19 18
18 19 24 23

        </DataArray>
        <DataArray type="Int32" Name="offsets" format="ascii">
4 8 12 16 20 24 28 32 36 40 44 48 52 56 60 64 
        </DataArray>
        <DataArray type="UInt8" Name="types" format="ascii">
9 9 9 9 9 9 9 9 9 9 9 9 9 9 9 9 
        </DataArray>
      </Cells>
      <PointData>
        <DataArray type="Float64" Name="u">
          -9.41010137e-01 -6.93178113e-01 -2.75370644e-01 1.64490188e-02 -2.30882488e-03 -6.95505243e-01 -3.39867800e-01 6.02320490e-03 2.33231077e-01 2.68058408e-01 -3.94063317e-02 2.13932417e-01 4.20677293e-01 5.53268625e-01 5.91107588e-01 6.60362222e-01 7.46421859e-01 8.11408370e-01 8.52466529e-01 8.67176164e-01 9.84504727e-01 9.84504727e-01 9.84504727e-01 9.84504727e-01 9.84504727e-01 
        </DataArray>
      </PointData>
    </Piece>
    <Piece NumberOfPoints="25" NumberOfCells="16">
      <Points>
        <DataArray type="Float64" NumberOfComponents="3" format="ascii">
          2.00000003e-01 -1.00000000e+00 0.00000000e+00 
2.10187048e-01 -8.78077924e-01 0.00000000e+00 
2.20374092e-01 -7.56155908e-01 0.00000000e+00 
2.30561137e-01 -6.34233832e-01 0.00000000e+00 
2.40748182e-01 -5.12311757e-01 0.00000000e+00 
1.50000006e-01 -9.13731158e-01 0.00000000e+00 
1.57640278e-01 -8.22289646e-01 0.00000000e+00 
1.65280566e-01 -7.30848074e-01 0.00000000e+00 
1.72920853e-01 -6.39406562e-01 0.00000000e+00 
1.80561140e-01 -5.47964990e-01 0.00000000e+00 
1.00000001e-01 -8.27462375e-01 0.00000000e+00 
1.05093524e-01 -7.66501307e-01 0.00000000e+00 
1.10187046e-01 -7.05540299e-01 0.00000000e+00 
1.15280569e-01 -6.44579291e-01 0.00000000e+00 
1.20374091e-01 -5.83618224e-01 0.00000000e+00 
5.00000007e-02 -7.41193533e-01 0.00000000e+00 
5.25467619e-02 -7.10713029e-01 0.00000000e+00 
5.50935231e-02 -6.80232525e-01 0.00000000e+00 
5.76402843e-02 -6.49751961e-01 0.00000000e+00 
6.01870455e-02 -6.19271457e-01 0.00000000e+00 
-4.76604867e-13 -6.54924691e-01 0.00000000e+00 
-4.76617010e-13 -6.54924691e-01 0.00000000e+00 
-4.76618744e-13 -6.54924691e-01 0.00000000e+00 
-4.76610071e-13 -6.54924691e-01 0.00000000e+00 
-4.76590989e-13 -6.54924691e-01 0.00000000e+00 

        </DataArray>
      </Points>
      <Cells>
        <DataArray type="Int32" Name="connectivity" format="ascii">
0 1 6 5
5 6 11 10
10 11 16 15
15 16 21 20
1 2 7 6
6 7 12 11
11 12 17 16
16 17 22 21
2 3 8 7
7 8 13 12
12 13 18 17
17 18 23 22
3 4 9 8
8 9 14 13
13 14 19 18
18 19 24 23

        </DataArray>
        <DataArray type="Int32" Name="offsets" format="ascii">
4 8 12 16 20 24 28 32 36 40 44 48 52 56 60 64 
        </DataArray>
        <DataArray type="UInt8" Name="types" format="ascii">
9 9 9 9 9 9 9 9 9 9 9 9 9 9 9 9 
        </DataArray>
      </Cells>
      <PointData>
        <DataArray type="Float64" Name="u">
          9.35448651e-01 6.98282548e-01 3.80533925e-02 -6.57619163e-01 -9.94902724e-01 6.92859936e-01 3.61777392e-01 -1.02658682e-01 -5.61836274e-01 -8.75177616e-01 2.66999546e-01 6.42454599e-02 -1.70692485e-01 -4.04126294e-01 -6.01979672e-01 -1.75402461e-02 -7.52553804e-02 -1.39098673e-01 -2.05781903e-01 -2.71992582e-01 4.13877028e-03 4.13877028e-03 4.13877028e-03 4.13877028e-03 4.13877028e-03 
        </DataArray>
      </PointData>
    </Piece>
    <Piece NumberOfPoints="25" NumberOfCells="16">
      <Points>
        <DataArray type="Float64" NumberOfComponents="3" format="ascii">
          2.00000003e-01 -1.00000000e+00 0.00000000e+00 
3.00000012e-01 -1.00000000e+00 0.00000000e+00 
4.00000006e-01 -1.00000000e+00 0.00000000e+00 
5.00000000e-01 -1.00000000e+00 0.00000000e+00 
6.00000024e-01 -1.00000000e+00 0.00000000e+00 
2.77416945e-01 -9.03810143e-01 0.00000000e+00 
3.52416933e-01 -9.03810143e-01 0.00000000e+00 
4.27416950e-01 -9.03810143e-01 0.00000000e+00 
5.02416968e-01 -9.03810143e-01 0.00000000e+00 
5.77416956e-01 -9.03810143e-01 0.00000000e+00 
3.54833901e-01 -8.07620287e-01 0.00000000e+00 
4.04833883e-01 -8.07620287e-01 0.00000000e+00 
4.54833895e-01 -8.07620287e-01 0.00000000e+00 
5.04833877e-01 -8.07620287e-01 0.00000000e+00 
5.54833889e-01 -8.07620287e-01 0.00000000e+00 
4.32250828e-01 -7.11430371e-01 0.00000000e+00 
4.57250834e-01 -7.11430371e-01 0.00000000e+00 
4.82250839e-01 -7.11430371e-01 0.00000000e+00 
5.07250845e-01 -7.11430371e-01 0.00000000e+00 
5.32250822e-01 -7.11430371e-01 0.00000000e+00 
5.09667814e-01 -6.15240514e-01 0.00000000e+00 
5.09667814e-01 -6.15240514e-01 0.00000000e+00 
5.09667814e-01 -6.15240514e-01 0.00000000e+00 
5.09667814e-01 -6.15240514e-01 0.00000000e+00 
5.09667814e-01 -6.15240514e-01 0.00000000e+00 

        </DataArray>
      </Points>
      <Cells>
        <DataArray type="Int32" Name="connectivity" format="ascii">
0 1 6 5
5 6 11 10
10 11 16 15
15 16 21 20
1 2 7 6
6 7 12 11
11 12 17 16
16 17 22 21
2 3 8 7
7 8 13 12
12 13 18 17
17 18 23 22
3 4 9 8
8 9 14 13
13 14 19 18
18 19 24 23

        </DataArray>
        <DataArray type="Int32" Name="offsets" format="ascii">
4 8 12 16 20 24 28 32 36 40 44 48 52 56 60 64 
        </DataArray>
        <DataArray type="UInt8" Name="types" format="ascii">
9 9 9 9 9 9 9 9 9 9 9 9 9 9 9 9 
        </DataArray>
      </Cells>
      <PointData>
        <DataArray type="Float64" Name="u">
          9.37599172e-01 9.61673122e-01 5.99894749e-01 1.21859886e-02 -5.68680708e-01 8.07181913e-01 6.53794901e-01 3.60213773e-01 -1.40525594e-02 -3.86444827e-01 2.83330339e-01 2.07986023e-01 1.06380662e-01 -6.21144565e-03 -1.09962845e-01 -1.09682918e-01 -7.66564727e-02 -4.07102093e-02 -2.29587045e-04 4.66845071e-02 1.03469163e-01 1.03469163e-01 1.03469163e-01 1.03469163e-01 1.03469163e-01 
        </DataArray>
      </PointData>
    </Piece>
    <Piece NumberOfPoints="25" NumberOfCells="16">
      <Points>
        <DataArray type="Float64" NumberOfComponents="3" format="ascii">
          -6.00000024e-01 -1.00000000e+00 0.00000000e+00 
-5.00000000e-01 -1.00000000e+00 0.00000000e+00 
-4.00000006e-01 -1.00000000e+00 0.00000000e+00 
-3.00000012e-01 -1.00000000e+00 0.00000000e+00 
-2.00000003e-01 -1.00000000e+00 0.00000000e+00 
-5.77416956e-01 -9.03810143e-01 0.00000000e+00 
-5.02416968e-01 -9.03810143e-01 0.00000000e+00 
-4.27416950e-01 -9.03810143e-01 0.00000000e+00 
-3.52416933e-01 -9.03810143e-01 0.00000000e+00 
-2.77416945e-01 -9.03810143e-01 0.00000000e+00 
-5.54833889e-01 -8.07620287e-01 0.00000000e+00 
-5.04833877e-01 -8.07620287e-01 0.00000000e+00 
-4.54833895e-01 -8.07620287e-01 0.00000000e+00 
-4.04833883e-01 -8.07620287e-01 0.00000000e+00 
-3.54833901e-01 -8.07620287e-01 0.00000000e+00 
-5.32250822e-01 -7.11430371e-01 0.00000000e+00 
-5.07250845e-01 -7.11430371e-01 0.00000000e+00 
-4.82250839e-01 -7.11430371e-01 0.00000000e+00 
-4.57250834e-01 -7.11430371e-01 0.00000000e+00 
-4.32250828e-01 -7.11430371e-01 0.00000000e+00 
-5.09667814e-01 -6.15240514e-01 0.00000000e+00 
-5.09667814e-01 -6.15240514e-01 0.00000000e+00 
-5.09667814e-01 -6.15240514e-01 0.00000000e+00 
-5.09667814e-01 -6.15240514e-01 0.00000000e+00 
-5.09667814e-01 -6.15240514e-01 0.00000000e+00 

        </DataArray>
      </Points>
      <Cells>
        <DataArray type="Int32" Name="connectivity" format="ascii">
0 1 6 5
5 6 11 10
10 11 16 15
15 16 21 20
1 2 7 6
6 7 12 11
11 12 17 16
16 17 22 21
2 3 8 7
7 8 13 12
12 13 18 17
17 18 23 22
3 4 9 8
8 9 14 13
13 14 19 18
18 19 24 23

        </DataArray>
        <DataArray type="Int32" Name="offsets" format="ascii">
4 8 12 16 20 24 28 32 36 40 44 48 52 56 60 64 
        </DataArray>
        <DataArray type="UInt8" Name="types" format="ascii">
9 9 9 9 9 9 9 9 9 9 9 9 9 9 9 9 
        </DataArray>
      </Cells>
      <PointData>
        <DataArray type="Float64" Name="u">
          6.07518786e-01 2.45870600e-02 -5.63530506e-01 -9.25113975e-01 -9.01611370e-01 3.80746423e-01 8.38144344e-03 -3.65504271e-01 -6.58694405e-01 -8.12123443e-01 1.27427143e-01 2.33830645e-02 -8.95980103e-02 -1.91760294e-01 -2.67920997e-01 -7.53742068e-02 -2.83904221e-02 1.20734118e-02 4.79111928e-02 8.07310069e-02 4.15227667e-02 4.15227667e-02 4.15227667e-02 4.15227667e-02 4.15227667e-02 
        </DataArray>
      </PointData>
    </Piece>
    <Piece NumberOfPoints="25" NumberOfCells="16">
      <Points>
        <DataArray type="Float64" NumberOfComponents="3" format="ascii">
          6.66666687e-01 -2.50000000e-01 0.00000000e+00 
5.83333313e-01 -2.50000000e-01 0.00000000e+00 
5.00000000e-01 -2.50000000e-01 0.00000000e+00 
4.16666657e-01 -2.50000000e-01 0.00000000e+00 
3.33333343e-01 -2.50000000e-01 0.00000000e+00 
6.27416968e-01 -3.41310143e-01 0.00000000e+00 
5.64916968e-01 -3.41310143e-01 0.00000000e+00 
5.02416968e-01 -3.41310143e-01 0.00000000e+00 
4.39916939e-01 -3.41310143e-01 0.00000000e+00 
3.77416939e-01 -3.41310143e-01 0.00000000e+00 
5.88167250e-01 -4.32620257e-01 0.00000000e+00 
5.46500564e-01 -4.32620257e-01 0.00000000e+00 
5.04833877e-01 -4.32620257e-01 0.00000000e+00 
4.63167220e-01 -4.32620257e-01 0.00000000e+00 
4.21500564e-01 -4.32620257e-01 0.00000000e+00 
5.48917532e-01 -5.23930371e-01 0.00000000e+00 
5.28084159e-01 -5.23930371e-01 0.00000000e+00 
5.07250845e-01 -5.23930371e-01 0.00000000e+00 
4.86417502e-01 -5.23930371e-01 0.00000000e+00 
4.65584159e-01 -5.23930371e-01 0.00000000e+00 
5.09667814e-01 -6.15240514e-01 0.00000000e+00 
5.09667814e-01 -6.15240514e-01 0.00000000e+00 
5.09667814e-01 -6.15240514e-01 0.00000000e+00 
5.09667814e-01 -6.15240514e-01 0.00000000e+00 
5.09667814e-01 -6.15240514e-01 0.00000000e+00 

        </DataArray>
      </Points>
      <Cells>
        <DataArray type="Int32" Name="connectivity" format="ascii">
0 1 6 5
5 6 11 10
10 11 16 15
15 16 21 20
1 2 7 6
6 7 12 11
11 12 17 16
16 17 22 21
2 3 8 7
7 8 13 12
12 13 18 17
17 18 23 22
3 4 9 8
8 9 14 13
13 14 19 18
18 19 24 23

        </DataArray>
        <DataArray type="Int32" Name="offsets" format="ascii">
4 8 12 16 20 24 28 32 36 40 44 48 52 56 60 64 
        </DataArray>
        <DataArray type="UInt8" Name="types" format="ascii">
9 9 9 9 9 9 9 9 9 9 9 9 9 9 9 9 
        </DataArray>
      </Cells>
      <PointData>
        <DataArray type="Float64" Name="u">
          -8.60534136e-03 -5.25022103e-03 -3.23849893e-03 -7.67902379e-04 4.24255255e-03 3.91354390e-01 2.16275655e-01 9.03372613e-03 -1.99627459e-01 -3.78875777e-01 4.77221309e-01 2.61592096e-01 2.61535030e-02 -2.11101126e-01 -4.32161025e-01 2.98819667e-01 1.74908804e-01 4.67780077e-02 -8.22130498e-02 -2.08703608e-01 3.59655262e-02 3.59655262e-02 3.59655262e-02 3.59655262e-02 3.59655262e-02 
        </DataArray>
      </PointData>
    </Piece>
    <Piece NumberOfPoints="25" NumberOfCells="16">
      <Points>
        <DataArray type="Float64" NumberOfComponents="3" format="ascii">
          -3.33333343e-01 -2.50000000e-01 0.00000000e+00 
-4.16666657e-01 -2.50000000e-01 0.00000000e+00 
-5.00000000e-01 -2.50000000e-01 0.00000000e+00 
-5.83333313e-01 -2.50000000e-01 0.00000000e+00 
-6.66666687e-01 -2.50000000e-01 0.00000000e+00 
-3.77416939e-01 -3.41310143e-01 0.00000000e+00 
-4.39916939e-01 -3.41310143e-01 0.00000000e+00 
-5.02416968e-01 -3.41310143e-01 0.00000000e+00 
-5.64916968e-01 -3.41310143e-01 0.00000000e+00 
-6.27416968e-01 -3.41310143e-01 0.00000000e+00 
-4.21500564e-01 -4.32620257e-01 0.00000000e+00 
-4.63167220e-01 -4.32620257e-01 0.00000000e+00 
-5.04833877e-01 -4.32620257e-01 0.00000000e+00 
-5.46500564e-01 -4.32620257e-01 0.00000000e+00 
-5.88167250e-01 -4.32620257e-01 0.00000000e+00 
-4.65584159e-01 -5.23930371e-01 0.00000000e+00 
-4.86417502e-01 -5.23930371e-01 0.00000000e+00 
-5.07250845e-01 -5.23930371e-01 0.00000000e+00 
-5.28084159e-01 -5.23930371e-01 0.00000000e+00 
-5.48917532e-01 -5.23930371e-01 0.00000000e+00 
-5.09667814e-01 -6.15240514e-01 0.00000000e+00 
-5.09667814e-01 -6.15240514e-01 0.00000000e+00 
-5.09667814e-01 -6.15240514e-01 0.00000000e+00 
-5.09667814e-01 -6.15240514e-01 0.00000000e+00 
-5.09667814e-01 -6.15240514e-01 0.00000000e+00 

        </DataArray>
      </Points>
      <Cells>
        <DataArray type="Int32" Name="connectivity" format="ascii">
0 1 6 5
5 6 11 10
10 11 16 15
15 16 21 20
1 2 7 6
6 7 12 11
11 12 17 16
16 17 22 21
2 3 8 7
7 8 13 12
12 13 18 17
17 18 23 22
3 4 9 8
8 9 14 13
13 14 19 18
18 19 24 23

        </DataArray>
        <DataArray type="Int32" Name="offsets" format="ascii">
4 8 12 16 20 24 28 32 36 40 44 48 52 56 60 64 
        </DataArray>
        <DataArray type="UInt8" Name="types" format="ascii">
9 9 9 9 9 9 9 9 9 9 9 9 9 9 9 9 
        </DataArray>
      </Cells>
      <PointData>
        <DataArray type="Float64" Name="u">
          -1.25112580e-02 -8.49563475e-03 -6.20933815e-03 -3.62429889e-03 1.17062237e-03 3.80251462e-01 2.01465623e-01 -7.08661775e-03 -2.14563389e-01 -3.90159816e-01 4.27851790e-01 2.06753951e-01 -3.04619192e-02 -2.65772665e-01 -4.81162439e-01 2.14541512e-01 8.76104276e-02 -4.15951300e-02 -1.69711663e-01 -2.93376130e-01 -5.94809639e-02 -5.94809639e-02 -5.94809639e-02 -5.94809639e-02 -5.94809639e-02 
        </DataArray>
      </PointData>
    </Piece>
    <Piece NumberOfPoints="25" NumberOfCells="16">
      <Points>
        <DataArray type="Float64" NumberOfComponents="3" format="ascii">
          -2.00000003e-01 -1.00000000e+00 0.00000000e+00 
-1.00000001e-01 -1.00000000e+00 0.00000000e+00 
0.00000000e+00 -1.00000000e+00 0.00000000e+00 
1.00000001e-01 -1.00000000e+00 0.00000000e+00 
2.00000003e-01 -1.00000000e+00 0.00000000e+00 
-1.50000006e-01 -9.13731158e-01 0.00000000e+00 
-7.50000030e-02 -9.13731158e-01 0.00000000e+00 
-1.19149170e-13 -9.13731158e-01 0.00000000e+00 
7.50000030e-02 -9.13731158e-01 0.00000000e+00 
1.50000006e-01 -9.13731158e-01 0.00000000e+00 
-1.00000001e-01 -8.27462375e-01 0.00000000e+00 
-5.00000007e-02 -8.27462375e-01 0.00000000e+00 
-2.38296308e-13 -8.27462375e-01 0.00000000e+00 
5.00000007e-02 -8.27462375e-01 0.00000000e+00 
1.00000001e-01 -8.27462375e-01 0.00000000e+00 
-5.00000007e-02 -7.41193533e-01 0.00000000e+00 
-2.50000004e-02 -7.41193533e-01 0.00000000e+00 
-3.57441426e-13 -7.41193533e-01 0.00000000e+00 
2.50000004e-02 -7.41193533e-01 0.00000000e+00 
5.00000007e-02 -7.41193533e-01 0.00000000e+00 
-4.76590989e-13 -6.54924691e-01 0.00000000e+00 
-4.76584375e-13 -6.54924691e-01 0.00000000e+00 
-4.76584484e-13 -6.54924691e-01 0.00000000e+00 
-4.76591314e-13 -6.54924691e-01 0.00000000e+00 
-4.76604867e-13 -6.54924691e-01 0.00000000e+00 

        </DataArray>
      </Points>
      <Cells>
        <DataArray type="Int32" Name="connectivity" format="ascii">
0 1 6 5
5 6 11 10
10 11 16 15
15 16 21 20
1 2 7 6
6 7 12 11
11 12 17 16
16 17 22 21
2 3 8 7
7 8 13 12
12 13 18 17
17 18 23 22
3 4 9 8
8 9 14 13
13 14 19 18
18 19 24 23

        </DataArray>
        <DataArray type="Int32" Name="offsets" format="ascii">
4 8 12 16 20 24 28 32 36 40 44 48 52 56 60 64 
        </DataArray>
        <DataArray type="UInt8" Name="types" format="ascii">
9 9 9 9 9 9 9 9 9 9 9 9 9 9 9 9 
        </DataArray>
      </Cells>
      <PointData>
        <DataArray type="Float64" Name="u">
          -9.54255595e-01 -6.01324139e-01 -1.28708688e-02 5.73786589e-01 9.23180153e-01 -6.90162629e-01 -3.85473837e-01 3.02540512e-03 3.91391242e-01 6.96265025e-01 -2.77542863e-01 -1.52075354e-01 -6.39830196e-03 1.39408492e-01 2.65380820e-01 2.66484227e-02 1.56935500e-02 6.67913257e-03 -2.30574868e-03 -1.31647881e-02 -3.55991628e-02 -3.55991628e-02 -3.55991628e-02 -3.55991628e-02 -3.55991628e-02 
        </DataArray>
      </PointData>
    </Piece>
    <Piece NumberOfPoints="25" NumberOfCells="16">
      <Points>
        <DataArray type="Float64" NumberOfComponents="3" format="ascii">
          2.75224288e-12 -2.50000000e-01 0.00000000e+00 
-6.01870455e-02 -3.15577954e-01 0.00000000e+00 
-1.20374091e-01 -3.81155878e-01 0.00000000e+00 
-1.80561140e-01 -4.46733832e-01 0.00000000e+00 
-2.40748182e-01 -5.12311757e-01 0.00000000e+00 
1.94503571e-12 -3.51231188e-01 0.00000000e+00 
-4.51402850e-02 -4.00414646e-01 0.00000000e+00 
-9.02805701e-02 -4.49598104e-01 0.00000000e+00 
-1.35420859e-01 -4.98781562e-01 0.00000000e+00 
-1.80561140e-01 -5.47964990e-01 0.00000000e+00 
1.13782876e-12 -4.52462345e-01 0.00000000e+00 
-3.00935227e-02 -4.85251337e-01 0.00000000e+00 
-6.01870455e-02 -5.18040299e-01 0.00000000e+00 
-9.02805701e-02 -5.50829291e-01 0.00000000e+00 
-1.20374091e-01 -5.83618224e-01 0.00000000e+00 
3.30621652e-13 -5.53693533e-01 0.00000000e+00 
-1.50467614e-02 -5.70088029e-01 0.00000000e+00 
-3.00935227e-02 -5.86482525e-01 0.00000000e+00 
-4.51402850e-02 -6.02876961e-01 0.00000000e+00 
-6.01870455e-02 -6.19271457e-01 0.00000000e+00 
-4.76585459e-13 -6.54924691e-01 0.00000000e+00 
-4.76585459e-13 -6.54924691e-01 0.00000000e+00 
-4.76577111e-13 -6.54924691e-01 0.00000000e+00 
-4.76560469e-13 -6.54924691e-01 0.00000000e+00 
-4.76535478e-13 -6.54924691e-01 0.00000000e+00 

        </DataArray>
      </Points>
      <Cells>
        <DataArray type="Int32" Name="connectivity" format="ascii">
0 1 6 5
5 6 11 10
10 11 16 15
15 16 21 20
1 2 7 6
6 7 12 11
11 12 17 16
16 17 22 21
2 3 8 7
7 8 13 12
12 13 18 17
17 18 23 22
3 4 9 8
8 9 14 13
13 14 19 18
18 19 24 23

        </DataArray>
        <DataArray type="Int32" Name="offsets" format="ascii">
4 8 12 16 20 24 28 32 36 40 44 48 52 56 60 64 
        </DataArray>
        <DataArray type="UInt8" Name="types" format="ascii">
9 9 9 9 9 9 9 9 9 9 9 9 9 9 9 9 
        </DataArray>
      </Cells>
      <PointData>
        <DataArray type="Float64" Name="u">
          1.08084710e-02 1.47436945e-01 5.05121912e-01 8.51234864e-01 9.93538703e-01 -8.22547311e-04 2.27898930e-01 5.09621407e-01 7.50534106e-01 8.69606340e-01 1.46533584e-03 1.87448812e-01 3.65812157e-01 5.10042361e-01 5.96150879e-01 -2.91425789e-03 8.27365354e-02 1.58821261e-01 2.22186140e-01 2.69835171e-01 1.17405394e-02 1.17405394e-02 1.17405394e-02 1.17405394e-02 1.17405394e-02 
        </DataArray>
      </PointData>
    </Piece>
    <Piece NumberOfPoints="25" NumberOfCells="16">
      <Points>
        <DataArray type="Float64" NumberOfComponents="3" format="ascii">
          2.75224288e-12 -2.50000000e-01 0.00000000e+00 
1.94503571e-12 -3.51231188e-01 0.00000000e+00 
1.13782876e-12 -4.52462345e-01 0.00000000e+00 
3.30621652e-13 -5.53693533e-01 0.00000000e+00 
-4.76585459e-13 -6.54924691e-01 0.00000000e+00 
6.01870455e-02 -3.15577954e-01 0.00000000e+00 
6.01870455e-02 -3.91501337e-01 0.00000000e+00 
6.01870455e-02 -4.67424721e-01 0.00000000e+00 
6.01870455e-02 -5.43348074e-01 0.00000000e+00 
6.01870455e-02 -6.19271457e-01 0.00000000e+00 
1.20374091e-01 -3.81155878e-01 0.00000000e+00 
1.20374091e-01 -4.31771487e-01 0.00000000e+00 
1.20374091e-01 -4.82387066e-01 0.00000000e+00 
1.20374091e-01 -5.33002675e-01 0.00000000e+00 
1.20374091e-01 -5.83618224e-01 0.00000000e+00 
1.80561140e-01 -4.46733832e-01 0.00000000e+00 
1.80561140e-01 -4.72041637e-01 0.00000000e+00 
1.80561140e-01 -4.97349411e-01 0.00000000e+00 
1.80561140e-01 -5.22657216e-01 0.00000000e+00 
1.80561140e-01 -5.47964990e-01 0.00000000e+00 
2.40748182e-01 -5.12311757e-01 0.00000000e+00 
2.40748182e-01 -5.12311757e-01 0.00000000e+00 
2.40748182e-01 -5.12311757e-01 0.00000000e+00 
2.40748182e-01 -5.12311757e-01 0.00000000e+00 
2.40748182e-01 -5.12311757e-01 0.00000000e+00 

        </DataArray>
      </Points>
      <Cells>
        <DataArray type="Int32" Name="connectivity" format="ascii">
0 1 6 5
5 6 11 10
10 11 16 15
15 16 21 20
1 2 7 6
6 7 12 11
11 12 17 16
16 17 22 21
2 3 8 7
7 8 13 12
12 13 18 17
17 18 23 22
3 4 9 8
8 9 14 13
13 14 19 18
18 19 24 23

        </DataArray>
        <DataArray type="Int32" Name="offsets" format="ascii">
4 8 12 16 20 24 28 32 36 40 44 48 52 56 60 64 
        </DataArray>
        <DataArray type="UInt8" Name="types" format="ascii">
9 9 9 9 9 9 9 9 9 9 9 9 9 9 9 9 
        </DataArray>
      </Cells>
      <PointData>
        <DataArray type="Float64" Name="u">
          -7.58031944e-03 -2.55554773e-03 -2.40600247e-03 -4.81998544e-03 -1.13823469e-03 -1.48202361e-01 -2.86259209e-01 -3.59322965e-01 -3.57695891e-01 -2.69671838e-01 -5.03473362e-01 -6.22555035e-01 -6.81606376e-01 -6.75169540e-01 -5.97389955e-01 -8.50684007e-01 -8.89471012e-01 -9.05204333e-01 -8.96878685e-01 -8.63463986e-01 -1.00665815e+00 -1.00665815e+00 -1.00665815e+00 -1.00665815e+00 -1.00665815e+00 
        </DataArray>
      </PointData>
    </Piece>
    <Piece NumberOfPoints="25" NumberOfCells="16">
      <Points>
        <DataArray type="Float64" NumberOfComponents="3" format="ascii">
          -3.33333343e-01 -2.50000000e-01 0.00000000e+00 
-3.77416939e-01 -3.41310143e-01 0.00000000e+00 
-4.21500564e-01 -4.32620257e-01 0.00000000e+00 
-4.65584159e-01 -5.23930371e-01 0.00000000e+00 
-5.09667814e-01 -6.15240514e-01 0.00000000e+00 
-3.10187042e-01 -3.15577954e-01 0.00000000e+00 
-3.43249768e-01 -3.84060532e-01 0.00000000e+00 
-3.76312464e-01 -4.52543139e-01 0.00000000e+00 
-4.09375161e-01 -5.21025717e-01 0.00000000e+00 
-4.42437887e-01 -5.89508355e-01 0.00000000e+00 
-2.87040770e-01 -3.81155878e-01 0.00000000e+00 
-3.09082568e-01 -4.26810950e-01 0.00000000e+00 
-3.31124365e-01 -4.72466022e-01 0.00000000e+00 
-3.53166193e-01 -5.18121064e-01 0.00000000e+00 
-3.75207990e-01 -5.63776135e-01 0.00000000e+00 
-2.63894469e-01 -4.46733832e-01 0.00000000e+00 
-2.74915367e-01 -4.69561368e-01 0.00000000e+00 
-2.85936266e-01 -4.92388904e-01 0.00000000e+00 
-2.96957195e-01 -5.15216410e-01 0.00000000e+00 
-3.07978094e-01 -5.38043976e-01 0.00000000e+00 
-2.40748182e-01 -5.12311757e-01 0.00000000e+00 
-2.40748182e-01 -5.12311757e-01 0.00000000e+00 
-2.40748182e-01 -5.12311757e-01 0.00000000e+00 
-2.40748182e-01 -5.12311757e-01 0.00000000e+00 
-2.40748182e-01 -5.12311757e-01 0.00000000e+00 

        </DataArray>
      </Points>
      <Cells>
        <DataArray type="Int32" Name="connectivity" format="ascii">
0 1 6 5
5 6 11 10
10 11 16 15
15 16 21 20
1 2 7 6
6 7 12 11
11 12 17 16
16 17 22 21
2 3 8 7
7 8 13 12
12 13 18 17
17 18 23 22
3 4 9 8
8 9 14 13
13 14 19 18
18 19 24 23

        </DataArray>
        <DataArray type="Int32" Name="offsets" format="ascii">
4 8 12 16 20 24 28 32 36 40 44 48 52 56 60 64 
        </DataArray>
        <DataArray type="UInt8" Name="types" format="ascii">
9 9 9 9 9 9 9 9 9 9 9 9 9 9 9 9 
        </DataArray>
      </Cells>
      <PointData>
        <DataArray type="Float64" Name="u">
          -8.02899753e-03 3.80846443e-01 4.29716684e-01 2.14282481e-01 -3.52106845e-02 3.73538434e-01 6.21737407e-01 6.66655344e-01 5.35878330e-01 3.05891365e-01 7.13610536e-01 8.32759022e-01 8.56743336e-01 7.92448191e-01 6.56417347e-01 9.36449187e-01 9.66045859e-01 9.70779422e-01 9.51349347e-01 9.09058796e-01 9.95870938e-01 9.95870938e-01 9.95870938e-01 9.95870938e-01 9.95870938e-01 
        </DataArray>
      </PointData>
    </Piece>
    <Piece NumberOfPoints="25" NumberOfCells="16">
      <Points>
        <DataArray type="Float64" NumberOfComponents="3" format="ascii">
          3.33333343e-01 -2.50000000e-01 0.00000000e+00 
3.10187042e-01 -3.15577954e-01 0.00000000e+00 
2.87040770e-01 -3.81155878e-01 0.00000000e+00 
2.63894469e-01 -4.46733832e-01 0.00000000e+00 
2.40748182e-01 -5.12311757e-01 0.00000000e+00 
3.77416939e-01 -3.41310143e-01 0.00000000e+00 
3.60057235e-01 -3.90493572e-01 0.00000000e+00 
3.42697531e-01 -4.39677030e-01 0.00000000e+00 
3.25337797e-01 -4.88860488e-01 0.00000000e+00 
3.07978094e-01 -5.38043976e-01 0.00000000e+00 
4.21500564e-01 -4.32620257e-01 0.00000000e+00 
4.09927428e-01 -4.65409219e-01 0.00000000e+00 
3.98354262e-01 -4.98198211e-01 0.00000000e+00 
3.86781126e-01 -5.30987144e-01 0.00000000e+00 