<?xml version="1.0"?>
<VTKFile type="UnstructuredGrid" version="0.1" byte_order="LittleEndian">
  <UnstructuredGrid>
    <Piece NumberOfPoints="25" NumberOfCells="16">
      <Points>
        <DataArray type="Float64" NumberOfComponents="3" format="ascii">
          2.00000003e-01 -1.00000000e+00 0.00000000e+00 
2.77416945e-01 -9.03810143e-01 0.00000000e+00 
3.54833901e-01 -8.07620287e-01 0.00000000e+00 
4.32250828e-01 -7.11430371e-01 0.00000000e+00 
5.09667814e-01 -6.15240514e-01 0.00000000e+00 
2.10187048e-01 -8.78077924e-01 0.00000000e+00 
2.68249750e-01 -8.05935562e-01 0.00000000e+00 
3.26312453e-01 -7.33793139e-01 0.00000000e+00 
3.84375185e-01 -6.61650717e-01 0.00000000e+00 
4.42437887e-01 -5.89508355e-01 0.00000000e+00 
2.20374092e-01 -7.56155908e-01 0.00000000e+00 
2.59082556e-01 -7.08060980e-01 0.00000000e+00 
2.97791034e-01 -6.59965992e-01 0.00000000e+00 
3.36499512e-01 -6.11871064e-01 0.00000000e+00 
3.75207990e-01 -5.63776135e-01 0.00000000e+00 
2.30561137e-01 -6.34233832e-01 0.00000000e+00 
2.49915376e-01 -6.10186338e-01 0.00000000e+00 
2.69269615e-01 -5.86138904e-01 0.00000000e+00 
2.88623840e-01 -5.62091410e-01 0.00000000e+00 
3.07978094e-01 -5.38043976e-01 0.00000000e+00 
2.40748182e-01 -5.12311757e-01 0.00000000e+00 
2.40748182e-01 -5.12311757e-01 0.00000000e+00 
2.40748182e-01 -5.12311757e-01 0.00000000e+00 
2.40748182e-01 -5.12311757e-01 0.00000000e+00 
2.40748182e-01 -5.12311757e-01 0.00000000e+00 

        </DataArray>
      </Points>
      <Cells>
        <DataArray type="Int32" Name="connectivity" format="ascii">
0 1 6 5
5 6 11 10
10 11 16 15
15 16 21 20
1 2 7 6
6 7 12 11
11 12 17 16
16 17 22 21
2 3 8 7
7 8 13 12
12 13 18 17
17 18 23 22
3 4 9 8
8 9 14 13
13 14 19 18
18 19 24 23

        </DataArray>
        <DataArray type="Int32" Name="offsets" format="ascii">
4 8 12 16 20 24 28 32 36 40 44 48 52 56 60 64 
        </DataArray>
        <DataArray type="UInt8" Name="types" format="ascii">
9 9 9 9 9 9 9 9 9 9 9 9 9 9 9 9 
        </DataArray>
      </Cells>
      <PointData>
        <DataArray type="Float64" Name="u">
          -2.00417716e-02 3.87056545e-01 2.89448186e-01 -2.35120173e-01 -6.81084762e-01 4.46308436e-02 1.41421863e-01 -7.18793467e-02 -4.80881676e-01 -8.35830012e-01 5.56801682e-03 -9.31903961e-02 -3.06411995e-01 -5.76027791e-01 -8.17230226e-01 -1.26532758e-01 -2.37361276e-01 -3.62217275e-01 -4.90820216e-01 -6.11218397e-01 -2.55185695e-01 -2.55185695e-01 -2.55185695e-01 -2.55185695e-01 -2.55185695e-01 
        </DataArray>
      </PointData>
    </Piece>
    <Piece NumberOfPoints="25" NumberOfCells="16">
      <Points>
        <DataArray type="Float64" NumberOfComponents="3" format="ascii">
          -2.00000003e-01 -1.00000000e+00 0.00000000e+00 
-2.10187048e-01 -8.78077924e-01 0.00000000e+00 
-2.20374092e-01 -7.56155908e-01 0.00000000e+00 
-2.30561137e-01 -6.34233832e-01 0.00000000e+00 
-2.40748182e-01 -5.12311757e-01 0.00000000e+00 
-2.77416945e-01 -9.03810143e-01 0.00000000e+00 
-2.85057217e-01 -8.12368572e-01 0.00000000e+00 
-2.92697519e-01 -7.20927060e-01 0.00000000e+00 
-3.00337791e-01 -6.29485488e-01 0.00000000e+00 
-3.07978094e-01 -5.38043976e-01 0.00000000e+00 
-3.54833901e-01 -8.07620287e-01 0.00000000e+00 
-3.59927416e-01 -7.46659219e-01 0.00000000e+00 
-3.65020931e-01 -6.85698211e-01 0.00000000e+00 
-3.70114475e-01 -6.24737144e-01 0.00000000e+00 
-3.75207990e-01 -5.63776135e-01 0.00000000e+00 
-4.32250828e-01 -7.11430371e-01 0.00000000e+00 
-4.34797585e-01 -6.80949867e-01 0.00000000e+00 
-4.37344372e-01 -6.50469363e-01 0.00000000e+00 
-4.39891130e-01 -6.19988859e-01 0.00000000e+00 
-4.42437887e-01 -5.89508355e-01 0.00000000e+00 
-5.09667814e-01 -6.15240514e-01 0.00000000e+00 
-5.09667814e-01 -6.15240514e-01 0.00000000e+00 
-5.09667814e-01 -6.15240514e-01 0.00000000e+00 
-5.09667814e-01 -6.15240514e-01 0.00000000e+00 
-5.09667814e-01 -6.15240514e-01 0.00000000e+00 

        </DataArray>
      </Points>
      <Cells>
        <DataArray type="Int32" Name="connectivity" format="ascii">
0 1 6 5
5 6 11 10
10 11 16 15
15 16 21 20
1 2 7 6
6 7 12 11
11 12 17 16
16 17 22 21
2 3 8 7
7 8 13 12
12 13 18 17
17 18 23 22
3 4 9 8
8 9 14 13
13 14 19 18
18 19 24 23

        </DataArray>
        <DataArray type="Int32" Name="offsets" format="ascii">
4 8 12 16 20 24 28 32 36 40 44 48 52 56 60 64 
        </DataArray>
        <DataArray type="UInt8" Name="types" format="ascii">
9 9 9 9 9 9 9 9 9 9 9 9 9 9 9 9 
        </DataArray>
      </Cells>
      <PointData>
        <DataArray type="Float64" Name="u">
          -5.59828221e-01 -3.89027888e-01 -2.13730605e-02 2.81287888e-01 3.57354916e-01 -1.20176835e-01 -3.53341691e-02 8.97605930e-03 -1.36118853e-03 -4.87417524e-02 1.19807787e-01 -7.20919900e-03 -1.56341799e-01 -3.03223433e-01 -4.17222001e-01 -1.74013111e-01 -3.14824111e-01 -4.46407603e-01 -5.62149162e-01 -6.55042771e-01 -7.21857011e-01 -7.21857011e-01 -7.21857011e-01 -7.21857011e-01 -7.21857011e-01 
        </DataArray>
      </PointData>
    </Piece>
    <Piece NumberOfPoints="25" NumberOfCells="16">
      <Points>
        <DataArray type="Float64" NumberOfComponents="3" format="ascii">
          -2.00000003e-01 -1.00000000e+00 0.00000000e+00 
-1.50000006e-01 -9.13731158e-01 0.00000000e+00 
-1.00000001e-01 -8.27462375e-01 0.00000000e+00 
-5.00000007e-02 -7.41193533e-01 0.00000000e+00 
-4.76585459e-13 -6.54924691e-01 0.00000000e+00 
-2.10187048e-01 -8.78077924e-01 0.00000000e+00 
-1.72687054e-01 -8.13376307e-01 0.00000000e+00 
-1.35187045e-01 -7.48674691e-01 0.00000000e+00 
-9.76870507e-02 -6.83973074e-01 0.00000000e+00 
-6.01870455e-02 -6.19271457e-01 0.00000000e+00 
-2.20374092e-01 -7.56155908e-01 0.00000000e+00 
-1.95374101e-01 -7.13021457e-01 0.00000000e+00 
-1.70374095e-01 -6.69887066e-01 0.00000000e+00 
-1.45374089e-01 -6.26752675e-01 0.00000000e+00 
-1.20374091e-01 -5.83618224e-01 0.00000000e+00 
-2.30561137e-01 -6.34233832e-01 0.00000000e+00 
-2.18061134e-01 -6.12666607e-01 0.00000000e+00 
-2.05561146e-01 -5.91099441e-01 0.00000000e+00 
-1.93061143e-01 -5.69532216e-01 0.00000000e+00 
-1.80561140e-01 -5.47964990e-01 0.00000000e+00 
-2.40748182e-01 -5.12311757e-01 0.00000000e+00 
-2.40748182e-01 -5.12311757e-01 0.00000000e+00 
-2.40748182e-01 -5.12311757e-01 0.00000000e+00 
-2.40748182e-01 -5.12311757e-01 0.00000000e+00 
-2.40748182e-01 -5.12311757e-01 0.00000000e+00 

        </DataArray>
      </Points>
      <Cells>
        <DataArray type="Int32" Name="connectivity" format="ascii">
0 1 6 5
5 6 11 10
10 11 16 15
15 16 21 20
1 2 7 6
6 7 12 11
11 12 17 16
16 17 22 21
2 3 8 7
7 8 13 12
12 13 18 17
17 18 23 22
3 4 9 8
8 9 14 13
13 14 19 18
18 19 24 23

        </DataArray>
        <DataArray type="Int32" Name="offsets" format="ascii">
4 8 12 16 20 24 28 32 36 40 44 48 52 56 60 64 
        </DataArray>
        <DataArray type="UInt8" Name="types" format="ascii">
9 9 9 9 9 9 9 9 9 9 9 9 9 9 9 9 
        </DataArray>
      </Cells>
      <PointData>
        <DataArray type="Float64" Name="u">
          -5.80224995e-01 -6.92621108e-01 -4.43660914e-01 5.33207871e-02 5.30469805e-01 -3.83583041e-01 -2.76996264e-01 6.12681629e-03 3.84593657e-01 7.28320817e-01 -2.09372085e-02 1.38332866e-01 3.49280348e-01 5.77957989e-01 7.80761078e-01 2.83432516e-01 3.76998272e-01 4.73061418e-01 5.66142274e-01 6.50157567e-01 3.49270622e-01 3.49270622e-01 3.49270622e-01 3.49270622e-01 3.49270622e-01 
        </DataArray>
      </PointData>
    </Piece>
    <Piece NumberOfPoints="25" NumberOfCells="16">
      <Points>
        <DataArray type="Float64" NumberOfComponents="3" format="ascii">
          2.00000003e-01 -1.00000000e+00 0.00000000e+00 
2.10187048e-01 -8.78077924e-01 0.00000000e+00 
2.20374092e-01 -7.56155908e-01 0.00000000e+00 
2.30561137e-01 -6.34233832e-01 0.00000000e+00 
2.40748182e-01 -5.12311757e-01 0.00000000e+00 
1.50000006e-01 -9.13731158e-01 0.00000000e+00 
1.57640278e-01 -8.22289646e-01 0.00000000e+00 
1.65280566e-01 -7.30848074e-01 0.00000000e+00 
1.72920853e-01 -6.39406562e-01 0.00000000e+00 
1.80561140e-01 -5.47964990e-01 0.00000000e+00 
1.00000001e-01 -8.27462375e-01 0.00000000e+00 
1.05093524e-01 -7.66501307e-01 0.00000000e+00 
1.10187046e-01 -7.05540299e-01 0.00000000e+00 
1.15280569e-01 -6.44579291e-01 0.00000000e+00 
1.20374091e-01 -5.83618224e-01 0.00000000e+00 
5.00000007e-02 -7.41193533e-01 0.00000000e+00 
5.25467619e-02 -7.10713029e-01 0.00000000e+00 
5.50935231e-02 -6.80232525e-01 0.00000000e+00 
5.76402843e-02 -6.49751961e-01 0.00000000e+00 
6.01870455e-02 -6.19271457e-01 0.00000000e+00 
-4.76604867e-13 -6.54924691e-01 0.00000000e+00 
-4.76617010e-13 -6.54924691e-01 0.00000000e+00 
-4.76618744e-13 -6.54924691e-01 0.00000000e+00 
-4.76610071e-13 -6.54924691e-01 0.00000000e+00 
-4.76590989e-13 -6.54924691e-01 0.00000000e+00 

        </DataArray>
      </Points>
      <Cells>
        <DataArray type="Int32" Name="connectivity" format="ascii">
0 1 6 5
5 6 11 10
10 11 16 15
15 16 21 20
1 2 7 6
6 7 12 11
11 12 17 16
16 17 22 21
2 3 8 7
7 8 13 12
12 13 18 17
17 18 23 22
3 4 9 8
8 9 14 13
13 14 19 18
18 19 24 23

        </DataArray>
        <DataArray type="Int32" Name="offsets" format="ascii">
4 8 12 16 20 24 28 32 36 40 44 48 52 56 60 64 
        </DataArray>
        <DataArray type="UInt8" Name="types" format="ascii">
9 9 9 9 9 9 9 9 9 9 9 9 9 9 9 9 
        </DataArray>
      </Cells>
      <PointData>
        <DataArray type="Float64" Name="u">
          -6.91681072e-03 4.70152783e-02 5.83282503e-03 -1.26170190e-01 -2.55839848e-01 -2.62030816e-01 -1.16465012e-01 2.59947498e-02 1.10412845e-01 1.09969493e-01 -2.76649545e-01 -5.88131191e-02 1.49160306e-01 3.14179541e-01 4.08707141e-01 4.33350464e-02 1.96782479e-01 3.37923349e-01 4.60519514e-01 5.58679936e-01 5.30718632e-01 5.30718632e-01 5.30718632e-01 5.30718632e-01 5.30718632e-01 
        </DataArray>
      </PointData>
    </Piece>
    <Piece NumberOfPoints="25" NumberOfCells="16">
      <Points>
        <DataArray type="Float64" NumberOfComponents="3" format="ascii">
          2.00000003e-01 -1.00000000e+00 0.00000000e+00 
3.00000012e-01 -1.00000000e+00 0.00000000e+00 
4.00000006e-01 -1.00000000e+00 0.00000000e+00 
5.00000000e-01 -1.00000000e+00 0.00000000e+00 
6.00000024e-01 -1.00000000e+00 0.00000000e+00 
2.77416945e-01 -9.03810143e-01 0.00000000e+00 
3.52416933e-01 -9.03810143e-01 0.00000000e+00 
4.27416950e-01 -9.03810143e-01 0.00000000e+00 
5.02416968e-01 -9.03810143e-01 0.00000000e+00 
5.77416956e-01 -9.03810143e-01 0.00000000e+00 
3.54833901e-01 -8.07620287e-01 0.00000000e+00 
4.04833883e-01 -8.07620287e-01 0.00000000e+00 
4.54833895e-01 -8.07620287e-01 0.00000000e+00 
5.04833877e-01 -8.07620287e-01 0.00000000e+00 
5.54833889e-01 -8.07620287e-01 0.00000000e+00 
4.32250828e-01 -7.11430371e-01 0.00000000e+00 
4.57250834e-01 -7.11430371e-01 0.00000000e+00 
4.82250839e-01 -7.11430371e-01 0.00000000e+00 
5.07250845e-01 -7.11430371e-01 0.00000000e+00 
5.32250822e-01 -7.11430371e-01 0.00000000e+00 
5.09667814e-01 -6.15240514e-01 0.00000000e+00 
5.09667814e-01 -6.15240514e-01 0.00000000e+00 
5.09667814e-01 -6.15240514e-01 0.00000000e+00 
5.09667814e-01 -6.15240514e-01 0.00000000e+00 
5.09667814e-01 -6.15240514e-01 0.00000000e+00 

        </DataArray>
      </Points>
      <Cells>
        <DataArray type="Int32" Name="connectivity" format="ascii">
0 1 6 5
5 6 11 10
10 11 16 15
15 16 21 20
1 2 7 6
6 7 12 11
11 12 17 16
16 17 22 21
2 3 8 7
7 8 13 12
12 13 18 17
17 18 23 22
3 4 9 8
8 9 14 13
13 14 19 18
18 19 24 23

        </DataArray>
        <DataArray type="Int32" Name="offsets" format="ascii">
4 8 12 16 20 24 28 32 36 40 44 48 52 56 60 64 
        </DataArray>
        <DataArray type="UInt8" Name="types" format="ascii">
9 9 9 9 9 9 9 9 9 9 9 9 9 9 9 9 
        </DataArray>
      </Cells>
      <PointData>
        <DataArray type="Float64" Name="u">
          1.24893181e-02 5.93347973e-01 9.56700810e-01 9.55263374e-01 5.93162451e-01 3.80524097e-01 6.69967116e-01 8.13942532e-01 7.77293983e-01 5.72772567e-01 2.97233852e-01 3.42690464e-01 3.55543606e-01 3.33370434e-01 2.83211306e-01 -2.39550822e-01 -2.47027497e-01 -2.44061689e-01 -2.29957019e-01 -2.03425662e-01 -6.46921477e-01 -6.46921477e-01 -6.46921477e-01 -6.46921477e-01 -6.46921477e-01 
        </DataArray>
      </PointData>
    </Piece>
    <Piece NumberOfPoints="25" NumberOfCells="16">
      <Points>
        <DataArray type="Float64" NumberOfComponents="3" format="ascii">
          -6.00000024e-01 -1.00000000e+00 0.00000000e+00 
-5.00000000e-01 -1.00000000e+00 0.00000000e+00 
-4.00000006e-01 -1.00000000e+00 0.00000000e+00 
-3.00000012e-01 -1.00000000e+00 0.00000000e+00 
-2.00000003e-01 -1.00000000e+00 0.00000000e+00 
-5.77416956e-01 -9.03810143e-01 0.00000000e+00 
-5.02416968e-01 -9.03810143e-01 0.00000000e+00 
-4.27416950e-01 -9.03810143e-01 0.00000000e+00 
-3.52416933e-01 -9.03810143e-01 0.00000000e+00 
-2.77416945e-01 -9.03810143e-01 0.00000000e+00 
-5.54833889e-01 -8.07620287e-01 0.00000000e+00 
-5.04833877e-01 -8.07620287e-01 0.00000000e+00 
-4.54833895e-01 -8.07620287e-01 0.00000000e+00 
-4.04833883e-01 -8.07620287e-01 0.00000000e+00 
-3.54833901e-01 -8.07620287e-01 0.00000000e+00 
-5.32250822e-01 -7.11430371e-01 0.00000000e+00 
-5.07250845e-01 -7.11430371e-01 0.00000000e+00 
-4.82250839e-01 -7.11430371e-01 0.00000000e+00 
-4.57250834e-01 -7.11430371e-01 0.00000000e+00 
-4.32250828e-01 -7.11430371e-01 0.00000000e+00 
-5.09667814e-01 -6.15240514e-01 0.00000000e+00 
-5.09667814e-01 -6.15240514e-01 0.00000000e+00 
-5.09667814e-01 -6.15240514e-01 0.00000000e+00 
-5.09667814e-01 -6.15240514e-01 0.00000000e+00 
-5.09667814e-01 -6.15240514e-01 0.00000000e+00 

        </DataArray>
      </Points>
      <Cells>
        <DataArray type="Int32" Name="connectivity" format="ascii">
0 1 6 5
5 6 11 10
10 11 16 15
15 16 21 20
1 2 7 6
6 7 12 11
11 12 17 16
16 17 22 21
2 3 8 7
7 8 13 12
12 13 18 17
17 18 23 22
3 4 9 8
8 9 14 13
13 14 19 18
18 19 24 23

        </DataArray>
        <DataArray type="Int32" Name="offsets" format="ascii">
4 8 12 16 20 24 28 32 36 40 44 48 52 56 60 64 
        </DataArray>
        <DataArray type="UInt8" Name="types" format="ascii">
9 9 9 9 9 9 9 9 9 9 9 9 9 9 9 9 
        </DataArray>
      </Cells>
      <PointData>
        <DataArray type="Float64" Name="u">
          9.62711248e-01 9.70987742e-01 6.04943896e-01 1.46361481e-02 -5.63720948e-01 8.08056111e-01 7.82683096e-01 5.87716275e-01 2.64890951e-01 -1.16796606e-01 3.60039297e-01 3.48409946e-01 3.00380962e-01 2.21927321e-01 1.24408884e-01 -2.54127726e-01 -2.46010679e-01 -2.32057110e-01 -2.12319025e-01 -1.86511879e-01 -6.27883062e-01 -6.27883062e-01 -6.27883062e-01 -6.27883062e-01 -6.27883062e-01 
        </DataArray>
      </PointData>
    </Piece>
    <Piece NumberOfPoints="25" NumberOfCells="16">
      <Points>
        <DataArray type="Float64" NumberOfComponents="3" format="ascii">
          6.66666687e-01 -2.50000000e-01 0.00000000e+00 
5.83333313e-01 -2.50000000e-01 0.00000000e+00 
5.00000000e-01 -2.50000000e-01 0.00000000e+00 
4.16666657e-01 -2.50000000e-01 0.00000000e+00 
3.33333343e-01 -2.50000000e-01 0.00000000e+00 
6.27416968e-01 -3.41310143e-01 0.00000000e+00 
5.64916968e-01 -3.41310143e-01 0.00000000e+00 
5.02416968e-01 -3.41310143e-01 0.00000000e+00 
4.39916939e-01 -3.41310143e-01 0.00000000e+00 
3.77416939e-01 -3.41310143e-01 0.00000000e+00 
5.88167250e-01 -4.32620257e-01 0.00000000e+00 
5.46500564e-01 -4.32620257e-01 0.00000000e+00 
5.04833877e-01 -4.32620257e-01 0.00000000e+00 
4.63167220e-01 -4.32620257e-01 0.00000000e+00 
4.21500564e-01 -4.32620257e-01 0.00000000e+00 
5.48917532e-01 -5.23930371e-01 0.00000000e+00 
5.28084159e-01 -5.23930371e-01 0.00000000e+00 
5.07250845e-01 -5.23930371e-01 0.00000000e+00 
4.86417502e-01 -5.23930371e-01 0.00000000e+00 
4.65584159e-01 -5.23930371e-01 0.00000000e+00 
5.09667814e-01 -6.15240514e-01 0.00000000e+00 
5.09667814e-01 -6.15240514e-01 0.00000000e+00 
5.09667814e-01 -6.15240514e-01 0.00000000e+00 
5.09667814e-01 -6.15240514e-01 0.00000000e+00 
5.09667814e-01 -6.15240514e-01 0.00000000e+00 

        </DataArray>
      </Points>
      <Cells>
        <DataArray type="Int32" Name="connectivity" format="ascii">
0 1 6 5
5 6 11 10
10 11 16 15
15 16 21 20
1 2 7 6
6 7 12 11
11 12 17 16
16 17 22 21
2 3 8 7
7 8 13 12
12 13 18 17
17 18 23 22
3 4 9 8
8 9 14 13
13 14 19 18
18 19 24 23

        </DataArray>
        <DataArray type="Int32" Name="offsets" format="ascii">
4 8 12 16 20 24 28 32 36 40 44 48 52 56 60 64 
        </DataArray>
        <DataArray type="UInt8" Name="types" format="ascii">
9 9 9 9 9 9 9 9 9 9 9 9 9 9 9 9 
        </DataArray>
      </Cells>
      <PointData>
        <DataArray type="Float64" Name="u">
          -5.89749598e-03 5.16832047e-04 9.84277045e-04 1.33819180e-05 -1.37934103e-02 -2.39870128e-01 -4.08504830e-01 -5.14477708e-01 -5.43233270e-01 -4.85248814e-01 -5.89331633e-01 -7.47417265e-01 -8.56807083e-01 -9.09439175e-01 -8.98245766e-01 -8.05207831e-01 -8.72932407e-01 -9.25394076e-01 -9.61116454e-01 -9.78685287e-01 -7.06945123e-01 -7.06945123e-01 -7.06945123e-01 -7.06945123e-01 -7.06945123e-01 
        </DataArray>
      </PointData>
    </Piece>
    <Piece NumberOfPoints="25" NumberOfCells="16">
      <Points>
        <DataArray type="Float64" NumberOfComponents="3" format="ascii">
          -3.33333343e-01 -2.50000000e-01 0.00000000e+00 
-4.16666657e-01 -2.50000000e-01 0.00000000e+00 
-5.00000000e-01 -2.50000000e-01 0.00000000e+00 
-5.83333313e-01 -2.50000000e-01 0.00000000e+00 
-6.66666687e-01 -2.50000000e-01 0.00000000e+00 
-3.77416939e-01 -3.41310143e-01 0.00000000e+00 
-4.39916939e-01 -3.41310143e-01 0.00000000e+00 
-5.02416968e-01 -3.41310143e-01 0.00000000e+00 
-5.64916968e-01 -3.41310143e-01 0.00000000e+00 
-6.27416968e-01 -3.41310143e-01 0.00000000e+00 
-4.21500564e-01 -4.32620257e-01 0.00000000e+00 
-4.63167220e-01 -4.32620257e-01 0.00000000e+00 
-5.04833877e-01 -4.32620257e-01 0.00000000e+00 
-5.46500564e-01 -4.32620257e-01 0.00000000e+00 
-5.88167250e-01 -4.32620257e-01 0.00000000e+00 
-4.65584159e-01 -5.23930371e-01 0.00000000e+00 
-4.86417502e-01 -5.23930371e-01 0.00000000e+00 
-5.07250845e-01 -5.23930371e-01 0.00000000e+00 
-5.28084159e-01 -5.23930371e-01 0.00000000e+00 
-5.48917532e-01 -5.23930371e-01 0.00000000e+00 
-5.09667814e-01 -6.15240514e-01 0.00000000e+00 
-5.09667814e-01 -6.15240514e-01 0.00000000e+00 
-5.09667814e-01 -6.15240514e-01 0.00000000e+00 
-5.09667814e-01 -6.15240514e-01 0.00000000e+00 
-5.09667814e-01 -6.15240514e-01 0.00000000e+00 

        </DataArray>
      </Points>
      <Cells>
        <DataArray type="Int32" Name="connectivity" format="ascii">
0 1 6 5
5 6 11 10
10 11 16 15
15 16 21 20
1 2 7 6
6 7 12 11
11 12 17 16
16 17 22 21
2 3 8 7
7 8 13 12
12 13 18 17
17 18 23 22
3 4 9 8
8 9 14 13
13 14 19 18
18 19 24 23

        </DataArray>
        <DataArray type="Int32" Name="offsets" format="ascii">
4 8 12 16 20 24 28 32 36 40 44 48 52 56 60 64 
        </DataArray>
        <DataArray type="UInt8" Name="types" format="ascii">
9 9 9 9 9 9 9 9 9 9 9 9 9 9 9 9 
        </DataArray>
      </Cells>
      <PointData>
        <DataArray type="Float64" Name="u">
          -7.41601037e-03 -5.66439313e-04 -2.56853863e-04 -1.08850819e-03 -1.38246898e-02 -2.54813712e-01 -4.19366427e-01 -5.19492896e-01 -5.41739252e-01 -4.77765398e-01 -6.30400695e-01 -7.77617956e-01 -8.74125878e-01 -9.12626644e-01 -8.86832562e-01 -8.52401326e-01 -9.10274987e-01 -9.52000808e-01 -9.76252627e-01 -9.81767412e-01 -7.40236433e-01 -7.40236433e-01 -7.40236433e-01 -7.40236433e-01 -7.40236433e-01 
        </DataArray>
      </PointData>
    </Piece>
    <Piece NumberOfPoints="25" NumberOfCells="16">
      <Points>
        <DataArray type="Float64" NumberOfComponents="3" format="ascii">
          -2.00000003e-01 -1.00000000e+00 0.00000000e+00 
-1.00000001e-01 -1.00000000e+00 0.00000000e+00 
0.00000000e+00 -1.00000000e+00 0.00000000e+00 
1.00000001e-01 -1.00000000e+00 0.00000000e+00 
2.00000003e-01 -1.00000000e+00 0.00000000e+00 
-1.50000006e-01 -9.13731158e-01 0.00000000e+00 
-7.50000030e-02 -9.13731158e-01 0.00000000e+00 
-1.19149170e-13 -9.13731158e-01 0.00000000e+00 
7.50000030e-02 -9.13731158e-01 0.00000000e+00 
1.50000006e-01 -9.13731158e-01 0.00000000e+00 
-1.00000001e-01 -8.27462375e-01 0.00000000e+00 
-5.00000007e-02 -8.27462375e-01 0.00000000e+00 
-2.38296308e-13 -8.27462375e-01 0.00000000e+00 
5.00000007e-02 -8.27462375e-01 0.00000000e+00 
1.00000001e-01 -8.27462375e-01 0.00000000e+00 
-5.00000007e-02 -7.41193533e-01 0.00000000e+00 
-2.50000004e-02 -7.41193533e-01 0.00000000e+00 
-3.57441426e-13 -7.41193533e-01 0.00000000e+00 
2.50000004e-02 -7.41193533e-01 0.00000000e+00 
5.00000007e-02 -7.41193533e-01 0.00000000e+00 
-4.76590989e-13 -6.54924691e-01 0.00000000e+00 
-4.76584375e-13 -6.54924691e-01 0.00000000e+00 
-4.76584484e-13 -6.54924691e-01 0.00000000e+00 
-4.76591314e-13 -6.54924691e-01 0.00000000e+00 
-4.76604867e-13 -6.54924691e-01 0.00000000e+00 

        </DataArray>
      </Points>
      <Cells>
        <DataArray type="Int32" Name="connectivity" format="ascii">
0 1 6 5
5 6 11 10
10 11 16 15
15 16 21 20
1 2 7 6
6 7 12 11
11 12 17 16
16 17 22 21
2 3 8 7
7 8 13 12
12 13 18 17
17 18 23 22
3 4 9 8
8 9 14 13
13 14 19 18
18 19 24 23

        </DataArray>
        <DataArray type="Int32" Name="offsets" format="ascii">
4 8 12 16 20 24 28 32 36 40 44 48 52 56 60 64 
        </DataArray>
        <DataArray type="UInt8" Name="types" format="ascii">
9 9 9 9 9 9 9 9 9 9 9 9 9 9 9 9 
        </DataArray>
      </Cells>
      <PointData>
        <DataArray type="Float64" Name="u">
          -5.93954722e-01 -9.60175286e-01 -9.59138286e-01 -5.94650200e-01 -1.26417081e-02 -6.91126420e-01 -8.43576867e-01 -8.13698441e-01 -6.04402766e-01 -2.63570455e-01 -4.47052724e-01 -4.70255321e-01 -4.47708999e-01 -3.80663355e-01 -2.79250751e-01 5.78842845e-02 6.04970179e-02 5.95987474e-02 5.49849115e-02 4.58957761e-02 4.94451740e-01 4.94451740e-01 4.94451740e-01 4.94451740e-01 4.94451740e-01 
        </DataArray>
      </PointData>
    </Piece>
    <Piece NumberOfPoints="25" NumberOfCells="16">
      <Points>
        <DataArray type="Float64" NumberOfComponents="3" format="ascii">
          2.75224288e-12 -2.50000000e-01 0.00000000e+00 
-6.01870455e-02 -3.15577954e-01 0.00000000e+00 
-1.20374091e-01 -3.81155878e-01 0.00000000e+00 
-1.80561140e-01 -4.46733832e-01 0.00000000e+00 
-2.40748182e-01 -5.12311757e-01 0.00000000e+00 
1.94503571e-12 -3.51231188e-01 0.00000000e+00 
-4.51402850e-02 -4.00414646e-01 0.00000000e+00 
-9.02805701e-02 -4.49598104e-01 0.00000000e+00 
-1.35420859e-01 -4.98781562e-01 0.00000000e+00 
-1.80561140e-01 -5.47964990e-01 0.00000000e+00 
1.13782876e-12 -4.52462345e-01 0.00000000e+00 
-3.00935227e-02 -4.85251337e-01 0.00000000e+00 
-6.01870455e-02 -5.18040299e-01 0.00000000e+00 
-9.02805701e-02 -5.50829291e-01 0.00000000e+00 
-1.20374091e-01 -5.83618224e-01 0.00000000e+00 
3.30621652e-13 -5.53693533e-01 0.00000000e+00 
-1.50467614e-02 -5.70088029e-01 0.00000000e+00 
-3.00935227e-02 -5.86482525e-01 0.00000000e+00 
-4.51402850e-02 -6.02876961e-01 0.00000000e+00 
-6.01870455e-02 -6.19271457e-01 0.00000000e+00 
-4.76585459e-13 -6.54924691e-01 0.00000000e+00 
-4.76585459e-13 -6.54924691e-01 0.00000000e+00 
-4.76577111e-13 -6.54924691e-01 0.00000000e+00 
-4.76560469e-13 -6.54924691e-01 0.00000000e+00 
-4.76535478e-13 -6.54924691e-01 0.00000000e+00 

        </DataArray>
      </Points>
      <Cells>
        <DataArray type="Int32" Name="connectivity" format="ascii">
0 1 6 5
5 6 11 10
10 11 16 15
15 16 21 20
1 2 7 6
6 7 12 11
11 12 17 16
16 17 22 21
2 3 8 7
7 8 13 12
12 13 18 17
17 18 23 22
3 4 9 8
8 9 14 13
13 14 19 18
18 19 24 23

        </DataArray>
        <DataArray type="Int32" Name="offsets" format="ascii">
4 8 12 16 20 24 28 32 36 40 44 48 52 56 60 64 
        </DataArray>
        <DataArray type="UInt8" Name="types" format="ascii">
9 9 9 9 9 9 9 9 9 9 9 9 9 9 9 9 
        </DataArray>
      </Cells>
      <PointData>
        <DataArray type="Float64" Name="u">
          8.16408841e-03 4.00956348e-01 6.66047826e-01 6.44080751e-01 3.65598611e-01 5.65367202e-01 8.10119664e-01 9.19177696e-01 8.58246160e-01 6.53115865e-01 9.08711219e-01 9.87717149e-01 9.91644228e-01 9.20089133e-01 7.84517371e-01 8.96533295e-01 8.82315264e-01 8.49038274e-01 7.97871683e-01 7.30726653e-01 5.40562626e-01 5.40562626e-01 5.40562626e-01 5.40562626e-01 5.40562626e-01 
        </DataArray>
      </PointData>
    </Piece>
    <Piece NumberOfPoints="25" NumberOfCells="16">
      <Points>
        <DataArray type="Float64" NumberOfComponents="3" format="ascii">
          2.75224288e-12 -2.50000000e-01 0.00000000e+00 
1.94503571e-12 -3.51231188e-01 0.00000000e+00 
1.13782876e-12 -4.52462345e-01 0.00000000e+00 
3.30621652e-13 -5.53693533e-01 0.00000000e+00 
-4.76585459e-13 -6.54924691e-01 0.00000000e+00 
6.01870455e-02 -3.15577954e-01 0.00000000e+00 
6.01870455e-02 -3.91501337e-01 0.00000000e+00 
6.01870455e-02 -4.67424721e-01 0.00000000e+00 
6.01870455e-02 -5.43348074e-01 0.00000000e+00 
6.01870455e-02 -6.19271457e-01 0.00000000e+00 
1.20374091e-01 -3.81155878e-01 0.00000000e+00 
1.20374091e-01 -4.31771487e-01 0.00000000e+00 
1.20374091e-01 -4.82387066e-01 0.00000000e+00 
1.20374091e-01 -5.33002675e-01 0.00000000e+00 
1.20374091e-01 -5.83618224e-01 0.00000000e+00 
1.80561140e-01 -4.46733832e-01 0.00000000e+00 
1.80561140e-01 -4.72041637e-01 0.00000000e+00 
1.80561140e-01 -4.97349411e-01 0.00000000e+00 
1.80561140e-01 -5.22657216e-01 0.00000000e+00 
1.80561140e-01 -5.47964990e-01 0.00000000e+00 
2.40748182e-01 -5.12311757e-01 0.00000000e+00 
2.40748182e-01 -5.12311757e-01 0.00000000e+00 
2.40748182e-01 -5.12311757e-01 0.00000000e+00 
2.40748182e-01 -5.12311757e-01 0.00000000e+00 
2.40748182e-01 -5.12311757e-01 0.00000000e+00 

        </DataArray>
      </Points>
      <Cells>
        <DataArray type="Int32" Name="connectivity" format="ascii">
0 1 6 5
5 6 11 10
10 11 16 15
15 16 21 20
1 2 7 6
6 7 12 11
11 12 17 16
16 17 22 21
2 3 8 7
7 8 13 12
12 13 18 17
17 18 23 22
3 4 9 8
8 9 14 13
13 14 19 18
18 19 24 23

        </DataArray>
        <DataArray type="Int32" Name="offsets" format="ascii">
4 8 12 16 20 24 28 32 36 40 44 48 52 56 60 64 
        </DataArray>
        <DataArray type="UInt8" Name="types" format="ascii">
9 9 9 9 9 9 9 9 9 9 9 9 9 9 9 9 
        </DataArray>
      </Cells>
      <PointData>
        <DataArray type="Float64" Name="u">
          -5.77331776e-03 5.63142758e-01 9.05022330e-01 8.94546258e-01 5.28612684e-01 3.09873360e-01 5.98524931e-01 7.53653003e-01 7.40948846e-01 5.64774046e-01 3.52924061e-01 4.35623405e-01 4.75185265e-01 4.66943436e-01 4.13870291e-01 1.18374110e-01 1.21487723e-01 1.22566275e-01 1.21713908e-01 1.19512175e-01 -2.63936441e-01 -2.63936441e-01 -2.63936441e-01 -2.63936441e-01 -2.63936441e-01 
        </DataArray>
      </PointData>
    </Piece>
    <Piece NumberOfPoints="25" NumberOfCells="16">
      <Points>
        <DataArray type="Float64" NumberOfComponents="3" format="ascii">
          -3.33333343e-01 -2.50000000e-01 0.00000000e+00 
-3.77416939e-01 -3.41310143e-01 0.00000000e+00 
-4.21500564e-01 -4.32620257e-01 0.00000000e+00 
-4.65584159e-01 -5.23930371e-01 0.00000000e+00 
-5.09667814e-01 -6.15240514e-01 0.00000000e+00 
-3.10187042e-01 -3.15577954e-01 0.00000000e+00 
-3.43249768e-01 -3.84060532e-01 0.00000000e+00 
-3.76312464e-01 -4.52543139e-01 0.00000000e+00 
-4.09375161e-01 -5.21025717e-01 0.00000000e+00 
-4.42437887e-01 -5.89508355e-01 0.00000000e+00 
-2.87040770e-01 -3.81155878e-01 0.00000000e+00 
-3.09082568e-01 -4.26810950e-01 0.00000000e+00 
-3.31124365e-01 -4.72466022e-01 0.00000000e+00 
-3.53166193e-01 -5.18121064e-01 0.00000000e+00 
-3.75207990e-01 -5.63776135e-01 0.00000000e+00 
-2.63894469e-01 -4.46733832e-01 0.00000000e+00 
-2.74915367e-01 -4.69561368e-01 0.00000000e+00 
-2.85936266e-01 -4.92388904e-01 0.00000000e+00 
-2.96957195e-01 -5.15216410e-01 0.00000000e+00 
-3.07978094e-01 -5.38043976e-01 0.00000000e+00 
-2.40748182e-01 -5.12311757e-01 0.00000000e+00 
-2.40748182e-01 -5.12311757e-01 0.00000000e+00 
-2.40748182e-01 -5.12311757e-01 0.00000000e+00 
-2.40748182e-01 -5.12311757e-01 0.00000000e+00 
-2.40748182e-01 -5.12311757e-01 0.00000000e+00 

        </DataArray>
      </Points>
      <Cells>
        <DataArray type="Int32" Name="connectivity" format="ascii">
0 1 6 5
5 6 11 10
10 11 16 15
15 16 21 20
1 2 7 6
6 7 12 11
11 12 17 16
16 17 22 21
2 3 8 7
7 8 13 12
12 13 18 17
17 18 23 22
3 4 9 8
8 9 14 13
13 14 19 18
18 19 24 23

        </DataArray>
        <DataArray type="Int32" Name="offsets" format="ascii">
4 8 12 16 20 24 28 32 36 40 44 48 52 56 60 64 
        </DataArray>
        <DataArray type="UInt8" Name="types" format="ascii">
9 9 9 9 9 9 9 9 9 9 9 9 9 9 9 9 
        </DataArray>
      </Cells>
      <PointData>
        <DataArray type="Float64" Name="u">
          -1.52572872e-03 -2.54527478e-01 -6.27728230e-01 -8.53478447e-01 -7.13054158e-01 -2.70146392e-02 -2.00804425e-01 -4.40659435e-01 -6.28497208e-01 -6.61715639e-01 5.88192600e-02 -5.08525125e-02 -1.91056053e-01 -3.25272762e-01 -4.20041889e-01 2.10930525e-01 1.53699400e-01 8.80787536e-02 1.88248098e-02 -4.94973211e-02 3.64636928e-01 3.64636928e-01 3.64636928e-01 3.64636928e-01 3.64636928e-01 
        </DataArray>
      </PointData>
    </Piece>
    <Piece NumberOfPoints="25" NumberOfCells="16">
      <Points>
        <DataArray type="Float64" NumberOfComponents="3" format="ascii">
          3.33333343e-01 -2.50000000e-01 0.00000000e+00 
3.10187042e-01 -3.15577954e-01 0.00000000e+00 
2.87040770e-01 -3.81155878e-01 0.00000000e+00 
2.63894469e-01 -4.46733832e-01 0.00000000e+00 
2.40748182e-01 -5.12311757e-01 0.00000000e+00 
3.77416939e-01 -3.41310143e-01 0.00000000e+00 
3.60057235e-01 -3.90493572e-01 0.00000000e+00 
3.42697531e-01 -4.39677030e-01 0.00000000e+00 
3.25337797e-01 -4.88860488e-01 0.00000000e+00 
3.07978094e-01 -5.38043976e-01 0.00000000e+00 
4.21500564e-01 -4.32620257e-01 0.00000000e+00 
4.09927428e-01 -4.65409219e-01 0.00000000e+00 
3.98354262e-01 -4.98198211e-01 0.00000000e+00 