<?xml version="1.0"?>
<VTKFile type="UnstructuredGrid" version="0.1" byte_order="LittleEndian">
  <UnstructuredGrid>
    <Piece NumberOfPoints="144" NumberOfCells="121">
      <Points>
        <DataArray type="Float64" NumberOfComponents="3" format="ascii">
          3.14199996e+00 1.00000000e+00 0.00000000e+00 
3.12034535e+00 1.00000000e+00 0.00000000e+00 
3.07097673e+00 1.00000000e+00 0.00000000e+00 
2.99772024e+00 1.00000000e+00 0.00000000e+00 
2.90601563e+00 1.00000000e+00 0.00000000e+00 
2.80266523e+00 1.00000000e+00 0.00000000e+00 
2.69533467e+00 1.00000000e+00 0.00000000e+00 
2.59198427e+00 1.00000000e+00 0.00000000e+00 
2.50027966e+00 1.00000000e+00 0.00000000e+00 
2.42702317e+00 1.00000000e+00 0.00000000e+00 
2.37765455e+00 1.00000000e+00 0.00000000e+00 
2.35599995e+00 1.00000000e+00 0.00000000e+00 
3.14199996e+00 9.94489908e-01 0.00000000e+00 
3.12034535e+00 9.94489908e-01 0.00000000e+00 
3.07097673e+00 9.94489908e-01 0.00000000e+00 
2.99772024e+00 9.94489908e-01 0.00000000e+00 
2.90601563e+00 9.94489908e-01 0.00000000e+00 
2.80266523e+00 9.94489908e-01 0.00000000e+00 
2.69533467e+00 9.94489908e-01 0.00000000e+00 
2.59198427e+00 9.94489908e-01 0.00000000e+00 
2.50027966e+00 9.94489908e-01 0.00000000e+00 
2.42702317e+00 9.94489908e-01 0.00000000e+00 
2.37765455e+00 9.94489908e-01 0.00000000e+00 
2.35599995e+00 9.94489908e-01 0.00000000e+00 
3.14199996e+00 9.81927931e-01 0.00000000e+00 
3.12034535e+00 9.81927931e-01 0.00000000e+00 
3.07097673e+00 9.81927931e-01 0.00000000e+00 
2.99772024e+00 9.81927931e-01 0.00000000e+00 
2.90601563e+00 9.81927931e-01 0.00000000e+00 
2.80266523e+00 9.81927931e-01 0.00000000e+00 
2.69533467e+00 9.81927931e-01 0.00000000e+00 
2.59198427e+00 9.81927931e-01 0.00000000e+00 
2.50027966e+00 9.81927931e-01 0.00000000e+00 
2.42702317e+00 9.81927931e-01 0.00000000e+00 
2.37765455e+00 9.81927931e-01 0.00000000e+00 
2.35599995e+00 9.81927931e-01 0.00000000e+00 
3.14199996e+00 9.63287592e-01 0.00000000e+00 
3.12034535e+00 9.63287592e-01 0.00000000e+00 
3.07097673e+00 9.63287592e-01 0.00000000e+00 
2.99772024e+00 9.63287592e-01 0.00000000e+00 
2.90601563e+00 9.63287592e-01 0.00000000e+00 
2.80266523e+00 9.63287592e-01 0.00000000e+00 
2.69533467e+00 9.63287592e-01 0.00000000e+00 
2.59198427e+00 9.63287592e-01 0.00000000e+00 
2.50027966e+00 9.63287592e-01 0.00000000e+00 
2.42702317e+00 9.63287592e-01 0.00000000e+00 
2.37765455e+00 9.63287592e-01 0.00000000e+00 
2.35599995e+00 9.63287592e-01 0.00000000e+00 
3.14199996e+00 9.39953089e-01 0.00000000e+00 
3.12034535e+00 9.39953089e-01 0.00000000e+00 
3.07097673e+00 9.39953089e-01 0.00000000e+00 
2.99772024e+00 9.39953089e-01 0.00000000e+00 
2.90601563e+00 9.39953089e-01 0.00000000e+00 
2.80266523e+00 9.39953089e-01 0.00000000e+00 
2.69533467e+00 9.39953089e-01 0.00000000e+00 
2.59198427e+00 9.39953089e-01 0.00000000e+00 
2.50027966e+00 9.39953089e-01 0.00000000e+00 
2.42702317e+00 9.39953089e-01 0.00000000e+00 
2.37765455e+00 9.39953089e-01 0.00000000e+00 
2.35599995e+00 9.39953089e-01 0.00000000e+00 
3.14199996e+00 9.13655281e-01 0.00000000e+00 
3.12034535e+00 9.13655281e-01 0.00000000e+00 
3.07097673e+00 9.13655281e-01 0.00000000e+00 
2.99772024e+00 9.13655281e-01 0.00000000e+00 
2.90601563e+00 9.13655281e-01 0.00000000e+00 
2.80266523e+00 9.13655281e-01 0.00000000e+00 
2.69533467e+00 9.13655281e-01 0.00000000e+00 
2.59198427e+00 9.13655281e-01 0.00000000e+00 
2.50027966e+00 9.13655281e-01 0.00000000e+00 
2.42702317e+00 9.13655281e-01 0.00000000e+00 
2.37765455e+00 9.13655281e-01 0.00000000e+00 
2.35599995e+00 9.13655281e-01 0.00000000e+00 
3.14199996e+00 8.86344731e-01 0.00000000e+00 
3.12034535e+00 8.86344731e-01 0.00000000e+00 
3.07097673e+00 8.86344731e-01 0.00000000e+00 
2.99772024e+00 8.86344731e-01 0.00000000e+00 
2.90601563e+00 8.86344731e-01 0.00000000e+00 
2.80266523e+00 8.86344731e-01 0.00000000e+00 
2.69533467e+00 8.86344731e-01 0.00000000e+00 
2.59198427e+00 8.86344731e-01 0.00000000e+00 
2.50027966e+00 8.86344731e-01 0.00000000e+00 
2.42702317e+00 8.86344731e-01 0.00000000e+00 
2.37765455e+00 8.86344731e-01 0.00000000e+00 
2.35599995e+00 8.86344731e-01 0.00000000e+00 
3.14199996e+00 8.60046923e-01 0.00000000e+00 
3.12034535e+00 8.60046923e-01 0.00000000e+00 
3.07097673e+00 8.60046923e-01 0.00000000e+00 
2.99772024e+00 8.60046923e-01 0.00000000e+00 
2.90601563e+00 8.60046923e-01 0.00000000e+00 
2.80266523e+00 8.60046923e-01 0.00000000e+00 
2.69533467e+00 8.60046923e-01 0.00000000e+00 
2.59198427e+00 8.60046923e-01 0.00000000e+00 
2.50027966e+00 8.60046923e-01 0.00000000e+00 
2.42702317e+00 8.60046923e-01 0.00000000e+00 
2.37765455e+00 8.60046923e-01 0.00000000e+00 
2.35599995e+00 8.60046923e-01 0.00000000e+00 
3.14199996e+00 8.36712360e-01 0.00000000e+00 
3.12034535e+00 8.36712360e-01 0.00000000e+00 
3.07097673e+00 8.36712360e-01 0.00000000e+00 
2.99772024e+00 8.36712360e-01 0.00000000e+00 
2.90601563e+00 8.36712360e-01 0.00000000e+00 
2.80266523e+00 8.36712360e-01 0.00000000e+00 
2.69533467e+00 8.36712360e-01 0.00000000e+00 
2.59198427e+00 8.36712360e-01 0.00000000e+00 
2.50027966e+00 8.36712360e-01 0.00000000e+00 
2.42702317e+00 8.36712360e-01 0.00000000e+00 
2.37765455e+00 8.36712360e-01 0.00000000e+00 
2.35599995e+00 8.36712360e-01 0.00000000e+00 
3.14199996e+00 8.18072081e-01 0.00000000e+00 
3.12034535e+00 8.18072081e-01 0.00000000e+00 
3.07097673e+00 8.18072081e-01 0.00000000e+00 
2.99772024e+00 8.18072081e-01 0.00000000e+00 
2.90601563e+00 8.18072081e-01 0.00000000e+00 
2.80266523e+00 8.18072081e-01 0.00000000e+00 
2.69533467e+00 8.18072081e-01 0.00000000e+00 
2.59198427e+00 8.18072081e-01 0.00000000e+00 
2.50027966e+00 8.18072081e-01 0.00000000e+00 
2.42702317e+00 8.18072081e-01 0.00000000e+00 
2.37765455e+00 8.18072081e-01 0.00000000e+00 
2.35599995e+00 8.18072081e-01 0.00000000e+00 
3.14199996e+00 8.05510044e-01 0.00000000e+00 
3.12034535e+00 8.05510044e-01 0.00000000e+00 
3.07097673e+00 8.05510044e-01 0.00000000e+00 
2.99772024e+00 8.05510044e-01 0.00000000e+00 
2.90601563e+00 8.05510044e-01 0.00000000e+00 
2.80266523e+00 8.05510044e-01 0.00000000e+00 
2.69533467e+00 8.05510044e-01 0.00000000e+00 
2.59198427e+00 8.05510044e-01 0.00000000e+00 
2.50027966e+00 8.05510044e-01 0.00000000e+00 
2.42702317e+00 8.05510044e-01 0.00000000e+00 
2.37765455e+00 8.05510044e-01 0.00000000e+00 
2.35599995e+00 8.05510044e-01 0.00000000e+00 
3.14199996e+00 8.00000012e-01 0.00000000e+00 
3.12034535e+00 8.00000012e-01 0.00000000e+00 
3.07097673e+00 8.00000012e-01 0.00000000e+00 
2.99772024e+00 8.00000012e-01 0.00000000e+00 
2.90601563e+00 8.00000012e-01 0.00000000e+00 
2.80266523e+00 8.00000012e-01 0.00000000e+00 
2.69533467e+00 8.00000012e-01 0.00000000e+00 
2.59198427e+00 8.00000012e-01 0.00000000e+00 
2.50027966e+00 8.00000012e-01 0.00000000e+00 
2.42702317e+00 8.00000012e-01 0.00000000e+00 
2.37765455e+00 8.00000012e-01 0.00000000e+00 
2.35599995e+00 8.00000012e-01 0.00000000e+00 

        </DataArray>
      </Points>
      <Cells>
        <DataArray type="Int32" Name="connectivity" format="ascii">
0 1 13 12
12 13 25 24
24 25 37 36
36 37 49 48
48 49 61 60
60 61 73 72
72 73 85 84
84 85 97 96
96 97 109 108
108 109 121 120
120 121 133 132
1 2 14 13
13 14 26 25
25 26 38 37
37 38 50 49
49 50 62 61
61 62 74 73
73 74 86 85
85 86 98 97
97 98 110 109
109 110 122 121
121 122 134 133
2 3 15 14
14 15 27 26
26 27 39 38
38 39 51 50
50 51 63 62
62 63 75 74
74 75 87 86
86 87 99 98
98 99 111 110
110 111 123 122
122 123 135 134
3 4 16 15
15 16 28 27
27 28 40 39
39 40 52 51
51 52 64 63
63 64 76 75
75 76 88 87
87 88 100 99
99 100 112 111
111 112 124 123
123 124 136 135
4 5 17 16
16 17 29 28
28 29 41 40
40 41 53 52
52 53 65 64
64 65 77 76
76 77 89 88
88 89 101 100
100 101 113 112
112 113 125 124
124 125 137 136
5 6 18 17
17 18 30 29
29 30 42 41
41 42 54 53
53 54 66 65
65 66 78 77
77 78 90 89
89 90 102 101
101 102 114 113
113 114 126 125
125 126 138 137
6 7 19 18
18 19 31 30
30 31 43 42
42 43 55 54
54 55 67 66
66 67 79 78
78 79 91 90
90 91 103 102
102 103 115 114
114 115 127 126
126 127 139 138
7 8 20 19
19 20 32 31
31 32 44 43
43 44 56 55
55 56 68 67
67 68 80 79
79 80 92 91
91 92 104 103
103 104 116 115
115 116 128 127
127 128 140 139
8 9 21 20
20 21 33 32
32 33 45 44
44 45 57 56
56 57 69 68
68 69 81 80
80 81 93 92
92 93 105 104
104 105 117 116
116 117 129 128
128 129 141 140
9 10 22 21
21 22 34 33
33 34 46 45
45 46 58 57
57 58 70 69
69 70 82 81
81 82 94 93
93 94 106 105
105 106 118 117
117 118 130 129
129 130 142 141
10 11 23 22
22 23 35 34
34 35 47 46
46 47 59 58
58 59 71 70
70 71 83 82
82 83 95 94
94 95 107 106
106 107 119 118
118 119 131 130
130 131 143 142

        </DataArray>
        <DataArray type="Int32" Name="offsets" format="ascii">
4 8 12 16 20 24 28 32 36 40 44 48 52 56 60 64 68 72 76 80 84 88 92 96 100 104 108 112 116 120 124 128 132 136 140 144 148 152 156 160 164 168 172 176 180 184 188 192 196 200 204 208 212 216 220 224 228 232 236 240 244 248 252 256 260 264 268 272 276 280 284 288 292 296 300 304 308 312 316 320 324 328 332 336 340 344 348 352 356 360 364 368 372 376 380 384 388 392 396 400 404 408 412 416 420 424 428 432 436 440 444 448 452 456 460 464 468 472 476 480 484 
        </DataArray>
        <DataArray type="UInt8" Name="types" format="ascii">
9 9 9 9 9 9 9 9 9 9 9 9 9 9 9 9 9 9 9 9 9 9 9 9 9 9 9 9 9 9 9 9 9 9 9 9 9 9 9 9 9 9 9 9 9 9 9 9 9 9 9 9 9 9 9 9 9 9 9 9 9 9 9 9 9 9 9 9 9 9 9 9 9 9 9 9 9 9 9 9 9 9 9 9 9 9 9 9 9 9 9 9 9 9 9 9 9 9 9 9 9 9 9 9 9 9 9 9 9 9 9 9 9 9 9 9 9 9 9 9 9 
        </DataArray>
      </Cells>
      <PointData>
        <DataArray type="Float32" Name="u">
          0.00000000e+00 0.00000000e+00 0.00000000e+00 0.00000000e+00 0.00000000e+00 0.00000000e+00 0.00000000e+00 0.00000000e+00 0.00000000e+00 0.00000000e+00 0.00000000e+00 0.00000000e+00 1.09897847e-02 1.09897847e-02 1.09897847e-02 1.09897847e-02 1.09897847e-02 1.09897847e-02 1.09897847e-02 1.09897847e-02 1.09897847e-02 1.09897847e-02 1.09897847e-02 1.09897847e-02 3.58175360e-02 3.58175360e-02 3.58175360e-02 3.58175360e-02 3.58175360e-02 3.58175360e-02 3.58175360e-02 3.58175360e-02 3.58175360e-02 3.58175360e-02 3.58175360e-02 3.58175360e-02 7.20769702e-02 7.20769702e-02 7.20769702e-02 7.20769702e-02 7.20769702e-02 7.20769702e-02 7.20769702e-02 7.20769702e-02 7.20769702e-02 7.20769702e-02 7.20769702e-02 7.20769702e-02 1.16488181e-01 1.16488181e-01 1.16488181e-01 1.16488181e-01 1.16488181e-01 1.16488181e-01 1.16488181e-01 1.16488181e-01 1.16488181e-01 1.16488181e-01 1.16488181e-01 1.16488181e-01 1.65234005e-01 1.65234005e-01 1.65234005e-01 1.65234005e-01 1.65234005e-01 1.65234005e-01 1.65234005e-01 1.65234005e-01 1.65234005e-01 1.65234005e-01 1.65234005e-01 1.65234005e-01 2.14393061e-01 2.14393061e-01 2.14393061e-01 2.14393061e-01 2.14393061e-01 2.14393061e-01 2.14393061e-01 2.14393061e-01 2.14393061e-01 2.14393061e-01 2.14393061e-01 2.14393061e-01 2.60319320e-01 2.60319320e-01 2.60319320e-01 2.60319320e-01 2.60319320e-01 2.60319320e-01 2.60319320e-01 2.60319320e-01 2.60319320e-01 2.60319320e-01 2.60319320e-01 2.60319320e-01 2.99912385e-01 2.99912385e-01 2.99912385e-01 2.99912385e-01 2.99912385e-01 2.99912385e-01 2.99912385e-01 2.99912385e-01 2.99912385e-01 2.99912385e-01 2.99912385e-01 2.99912385e-01 3.30758092e-01 3.30758092e-01 3.30758092e-01 3.30758092e-01 3.30758092e-01 3.30758092e-01 3.30758092e-01 3.30758092e-01 3.30758092e-01 3.30758092e-01 3.30758092e-01 3.30758092e-01 3.51153523e-01 3.51153523e-01 3.51153523e-01 3.51153523e-01 3.51153523e-01 3.51153523e-01 3.51153523e-01 3.51153523e-01 3.51153523e-01 3.51153523e-01 3.51153523e-01 3.51153523e-01 3.60000000e-01 3.60000000e-01 3.60000000e-01 3.60000000e-01 3.60000000e-01 3.60000000e-01 3.60000000e-01 3.60000000e-01 3.60000000e-01 3.60000000e-01 3.60000000e-01 3.60000000e-01 
        </DataArray>
        <DataArray type="Float32" Name="v">
          0.00000000e+00 0.00000000e+00 0.00000000e+00 0.00000000e+00 0.00000000e+00 0.00000000e+00 0.00000000e+00 0.00000000e+00 0.00000000e+00 0.00000000e+00 0.00000000e+00 0.00000000e+00 0.00000000e+00 0.00000000e+00 0.00000000e+00 0.00000000e+00 0.00000000e+00 0.00000000e+00 0.00000000e+00 0.00000000e+00 0.00000000e+00 0.00000000e+00 0.00000000e+00 0.00000000e+00 0.00000000e+00 0.00000000e+00 0.00000000e+00 0.00000000e+00 0.00000000e+00 0.00000000e+00 0.00000000e+00 0.00000000e+00 0.00000000e+00 0.00000000e+00 0.00000000e+00 0.00000000e+00 1.06708531e-12 0.00000000e+00 0.00000000e+00 0.00000000e+00 0.00000000e+00 0.00000000e+00 0.00000000e+00 0.00000000e+00 0.00000000e+00 0.00000000e+00 0.00000000e+00 0.00000000e+00 0.00000000e+00 0.00000000e+00 0.00000000e+00 0.00000000e+00 0.00000000e+00 0.00000000e+00 0.00000000e+00 0.00000000e+00 0.00000000e+00 0.00000000e+00 0.00000000e+00 -1.02175526e-12 0.00000000e+00 0.00000000e+00 0.00000000e+00 0.00000000e+00 0.00000000e+00 0.00000000e+00 0.00000000e+00 0.00000000e+00 0.00000000e+00 0.00000000e+00 0.00000000e+00 0.00000000e+00 0.00000000e+00 0.00000000e+00 0.00000000e+00 0.00000000e+00 0.00000000e+00 0.00000000e+00 0.00000000e+00 0.00000000e+00 0.00000000e+00 0.00000000e+00 0.00000000e+00 0.00000000e+00 0.00000000e+00 0.00000000e+00 0.00000000e+00 0.00000000e+00 0.00000000e+00 0.00000000e+00 0.00000000e+00 0.00000000e+00 0.00000000e+00 0.00000000e+00 0.00000000e+00 0.00000000e+00 0.00000000e+00 0.00000000e+00 0.00000000e+00 0.00000000e+00 0.00000000e+00 0.00000000e+00 0.00000000e+00 0.00000000e+00 0.00000000e+00 0.00000000e+00 0.00000000e+00 0.00000000e+00 0.00000000e+00 0.00000000e+00 0.00000000e+00 0.00000000e+00 0.00000000e+00 0.00000000e+00 0.00000000e+00 0.00000000e+00 0.00000000e+00 0.00000000e+00 0.00000000e+00 0.00000000e+00 1.83357942e-12 0.00000000e+00 0.00000000e+00 0.00000000e+00 0.00000000e+00 0.00000000e+00 0.00000000e+00 0.00000000e+00 0.00000000e+00 0.00000000e+00 1.12796837e-12 2.47623980e-12 -1.06717434e-12 0.00000000e+00 0.00000000e+00 0.00000000e+00 0.00000000e+00 0.00000000e+00 0.00000000e+00 0.00000000e+00 0.00000000e+00 -2.00792446e-12 -2.01562652e-12 -5.40411005e-12 
        </DataArray>
        <DataArray type="Float32" Name="p">
          -3.32441100e-11 -3.64595781e-11 -3.51598054e-11 -3.61715066e-11 -3.55146501e-11 -3.62451600e-11 -3.59433763e-11 -3.59029159e-11 -3.59081062e-11 -3.34374620e-11 -3.41644262e-11 -2.93147827e-11 -3.63419954e-11 -3.52971005e-11 -3.58427382e-11 -3.55977920e-11 -3.60833809e-11 -3.59594849e-11 -3.62640248e-11 -3.64008463e-11 -3.65143306e-11 -3.75228760e-11 -3.72630581e-11 -3.91815304e-11 -3.49367727e-11 -3.58365248e-11 -3.55204250e-11 -3.58677481e-11 -3.58200686e-11 -3.60919212e-11 -3.61168544e-11 -3.61669311e-11 -3.62338705e-11 -3.56217284e-11 -3.58173987e-11 -3.46267449e-11 -3.58688034e-11 -3.54074124e-11 -3.57454563e-11 -3.56895291e-11 -3.59943224e-11 -3.60119139e-11 -3.62083647e-11 -3.63317865e-11 -3.64169045e-11 -3.69009251e-11 -3.67667146e-11 -3.76628226e-11 -3.52821394e-11 -3.57051475e-11 -3.55903269e-11 -3.58136649e-11 -3.58833991e-11 -3.60711109e-11 -3.61493497e-11 -3.62276681e-11 -3.63062874e-11 -3.60897678e-11 -3.62159359e-11 -3.56999985e-11 -3.55786819e-11 -3.55072468e-11 -3.56766861e-11 -3.57534007e-11 -3.59444860e-11 -3.60549983e-11 -3.61730568e-11 -3.62899817e-11 -3.63543717e-11 -3.64978532e-11 -3.65087091e-11 -3.67340157e-11 -3.56122463e-11 -3.55315498e-11 -3.56640263e-11 -3.57603687e-11 -3.59530172e-11 -3.60637588e-11 -3.61741692e-11 -3.62887851e-11 -3.63653079e-11 -3.64912128e-11 -3.64787431e-11 -3.66367537e-11 -3.53603347e-11 -3.55547508e-11 -3.56073903e-11 -3.58145371e-11 -3.59119203e-11 -3.61047042e-11 -3.61385058e-11 -3.62479892e-11 -3.63000437e-11 -3.61197581e-11 -3.61780661e-11 -3.58319297e-11 -3.59329376e-11 -3.52399577e-11 -3.57282646e-11 -3.57271228e-11 -3.60134871e-11 -3.60838970e-11 -3.61784239e-11 -3.63630234e-11 -3.64114811e-11 -3.69222185e-11 -3.68692325e-11 -3.76251570e-11 -3.49275150e-11 -3.54720547e-11 -3.55091385e-11 -3.59332800e-11 -3.58292166e-11 -3.62033940e-11 -3.60624233e-11 -3.62214787e-11 -3.62102856e-11 -3.56827809e-11 -3.60404603e-11 -3.46083882e-11 -3.62029862e-11 -3.45274299e-11 -3.58954960e-11 -3.56720549e-11 -3.60835459e-11 -3.61072666e-11 -3.61785608e-11 -3.64894135e-11 -3.64384170e-11 -3.76117808e-11 -3.74426359e-11 -3.93512682e-11 -3.29958551e-11 -3.58313224e-11 -3.51385762e-11 -3.63093157e-11 -3.54772489e-11 -3.64186015e-11 -3.58456373e-11 -3.59738156e-11 -3.58489223e-11 -3.33885317e-11 -3.42972403e-11 -2.87016175e-11 
        </DataArray>
      </PointData>
    </Piece>
    <Piece NumberOfPoints="144" NumberOfCells="121">
      <Points>
        <DataArray type="Float64" NumberOfComponents="3" format="ascii">
          3.14199996e+00 8.00000012e-01 0.00000000e+00 
3.12034535e+00 8.00000012e-01 0.00000000e+00 
3.07097673e+00 8.00000012e-01 0.00000000e+00 
2.99772024e+00 8.00000012e-01 0.00000000e+00 
2.90601563e+00 8.00000012e-01 0.00000000e+00 
2.80266523e+00 8.00000012e-01 0.00000000e+00 
2.69533467e+00 8.00000012e-01 0.00000000e+00 
2.59198427e+00 8.00000012e-01 0.00000000e+00 
2.50027966e+00 8.00000012e-01 0.00000000e+00 
2.42702317e+00 8.00000012e-01 0.00000000e+00 
2.37765455e+00 8.00000012e-01 0.00000000e+00 
2.35599995e+00 8.00000012e-01 0.00000000e+00 
3.14199996e+00 7.91734874e-01 0.00000000e+00 
3.12034535e+00 7.91734874e-01 0.00000000e+00 
3.07097673e+00 7.91734874e-01 0.00000000e+00 
2.99772024e+00 7.91734874e-01 0.00000000e+00 
2.90601563e+00 7.91734874e-01 0.00000000e+00 
2.80266523e+00 7.91734874e-01 0.00000000e+00 
2.69533467e+00 7.91734874e-01 0.00000000e+00 
2.59198427e+00 7.91734874e-01 0.00000000e+00 
2.50027966e+00 7.91734874e-01 0.00000000e+00 
2.42702317e+00 7.91734874e-01 0.00000000e+00 
2.37765455e+00 7.91734874e-01 0.00000000e+00 
2.35599995e+00 7.91734874e-01 0.00000000e+00 
3.14199996e+00 7.72891879e-01 0.00000000e+00 
3.12034535e+00 7.72891879e-01 0.00000000e+00 
3.07097673e+00 7.72891879e-01 0.00000000e+00 
2.99772024e+00 7.72891879e-01 0.00000000e+00 
2.90601563e+00 7.72891879e-01 0.00000000e+00 
2.80266523e+00 7.72891879e-01 0.00000000e+00 
2.69533467e+00 7.72891879e-01 0.00000000e+00 
2.59198427e+00 7.72891879e-01 0.00000000e+00 
2.50027966e+00 7.72891879e-01 0.00000000e+00 
2.42702317e+00 7.72891879e-01 0.00000000e+00 
2.37765455e+00 7.72891879e-01 0.00000000e+00 
2.35599995e+00 7.72891879e-01 0.00000000e+00 
3.14199996e+00 7.44931400e-01 0.00000000e+00 
3.12034535e+00 7.44931400e-01 0.00000000e+00 
3.07097673e+00 7.44931400e-01 0.00000000e+00 
2.99772024e+00 7.44931400e-01 0.00000000e+00 
2.90601563e+00 7.44931400e-01 0.00000000e+00 
2.80266523e+00 7.44931400e-01 0.00000000e+00 
2.69533467e+00 7.44931400e-01 0.00000000e+00 
2.59198427e+00 7.44931400e-01 0.00000000e+00 
2.50027966e+00 7.44931400e-01 0.00000000e+00 
2.42702317e+00 7.44931400e-01 0.00000000e+00 
2.37765455e+00 7.44931400e-01 0.00000000e+00 
2.35599995e+00 7.44931400e-01 0.00000000e+00 
3.14199996e+00 7.09929645e-01 0.00000000e+00 
3.12034535e+00 7.09929645e-01 0.00000000e+00 
3.07097673e+00 7.09929645e-01 0.00000000e+00 
2.99772024e+00 7.09929645e-01 0.00000000e+00 
2.90601563e+00 7.09929645e-01 0.00000000e+00 
2.80266523e+00 7.09929645e-01 0.00000000e+00 
2.69533467e+00 7.09929645e-01 0.00000000e+00 
2.59198427e+00 7.09929645e-01 0.00000000e+00 
2.50027966e+00 7.09929645e-01 0.00000000e+00 
2.42702317e+00 7.09929645e-01 0.00000000e+00 
2.37765455e+00 7.09929645e-01 0.00000000e+00 
2.35599995e+00 7.09929645e-01 0.00000000e+00 
3.14199996e+00 6.70482934e-01 0.00000000e+00 
3.12034535e+00 6.70482934e-01 0.00000000e+00 
3.07097673e+00 6.70482934e-01 0.00000000e+00 
2.99772024e+00 6.70482934e-01 0.00000000e+00 
2.90601563e+00 6.70482934e-01 0.00000000e+00 
2.80266523e+00 6.70482934e-01 0.00000000e+00 
2.69533467e+00 6.70482934e-01 0.00000000e+00 
2.59198427e+00 6.70482934e-01 0.00000000e+00 
2.50027966e+00 6.70482934e-01 0.00000000e+00 
2.42702317e+00 6.70482934e-01 0.00000000e+00 
2.37765455e+00 6.70482934e-01 0.00000000e+00 
2.35599995e+00 6.70482934e-01 0.00000000e+00 
3.14199996e+00 6.29517078e-01 0.00000000e+00 
3.12034535e+00 6.29517078e-01 0.00000000e+00 
3.07097673e+00 6.29517078e-01 0.00000000e+00 
2.99772024e+00 6.29517078e-01 0.00000000e+00 
2.90601563e+00 6.29517078e-01 0.00000000e+00 
2.80266523e+00 6.29517078e-01 0.00000000e+00 
2.69533467e+00 6.29517078e-01 0.00000000e+00 
2.59198427e+00 6.29517078e-01 0.00000000e+00 
2.50027966e+00 6.29517078e-01 0.00000000e+00 
2.42702317e+00 6.29517078e-01 0.00000000e+00 
2.37765455e+00 6.29517078e-01 0.00000000e+00 
2.35599995e+00 6.29517078e-01 0.00000000e+00 
3.14199996e+00 5.90070367e-01 0.00000000e+00 
3.12034535e+00 5.90070367e-01 0.00000000e+00 
3.07097673e+00 5.90070367e-01 0.00000000e+00 
2.99772024e+00 5.90070367e-01 0.00000000e+00 
2.90601563e+00 5.90070367e-01 0.00000000e+00 
2.80266523e+00 5.90070367e-01 0.00000000e+00 
2.69533467e+00 5.90070367e-01 0.00000000e+00 
2.59198427e+00 5.90070367e-01 0.00000000e+00 
2.50027966e+00 5.90070367e-01 0.00000000e+00 
2.42702317e+00 5.90070367e-01 0.00000000e+00 
2.37765455e+00 5.90070367e-01 0.00000000e+00 
2.35599995e+00 5.90070367e-01 0.00000000e+00 
3.14199996e+00 5.55068552e-01 0.00000000e+00 
3.12034535e+00 5.55068552e-01 0.00000000e+00 
3.07097673e+00 5.55068552e-01 0.00000000e+00 
2.99772024e+00 5.55068552e-01 0.00000000e+00 
2.90601563e+00 5.55068552e-01 0.00000000e+00 
2.80266523e+00 5.55068552e-01 0.00000000e+00 
2.69533467e+00 5.55068552e-01 0.00000000e+00 
2.59198427e+00 5.55068552e-01 0.00000000e+00 
2.50027966e+00 5.55068552e-01 0.00000000e+00 
2.42702317e+00 5.55068552e-01 0.00000000e+00 
2.37765455e+00 5.55068552e-01 0.00000000e+00 
2.35599995e+00 5.55068552e-01 0.00000000e+00 
3.14199996e+00 5.27108073e-01 0.00000000e+00 
3.12034535e+00 5.27108073e-01 0.00000000e+00 
3.07097673e+00 5.27108073e-01 0.00000000e+00 
2.99772024e+00 5.27108073e-01 0.00000000e+00 
2.90601563e+00 5.27108073e-01 0.00000000e+00 
2.80266523e+00 5.27108073e-01 0.00000000e+00 
2.69533467e+00 5.27108073e-01 0.00000000e+00 
2.59198427e+00 5.27108073e-01 0.00000000e+00 
2.50027966e+00 5.27108073e-01 0.00000000e+00 
2.42702317e+00 5.27108073e-01 0.00000000e+00 
2.37765455e+00 5.27108073e-01 0.00000000e+00 
2.35599995e+00 5.27108073e-01 0.00000000e+00 
3.14199996e+00 5.08265138e-01 0.00000000e+00 
3.12034535e+00 5.08265138e-01 0.00000000e+00 
3.07097673e+00 5.08265138e-01 0.00000000e+00 
2.99772024e+00 5.08265138e-01 0.00000000e+00 
2.90601563e+00 5.08265138e-01 0.00000000e+00 
2.80266523e+00 5.08265138e-01 0.00000000e+00 
2.69533467e+00 5.08265138e-01 0.00000000e+00 
2.59198427e+00 5.08265138e-01 0.00000000e+00 
2.50027966e+00 5.08265138e-01 0.00000000e+00 
2.42702317e+00 5.08265138e-01 0.00000000e+00 
2.37765455e+00 5.08265138e-01 0.00000000e+00 
2.35599995e+00 5.08265138e-01 0.00000000e+00 
3.14199996e+00 5.00000000e-01 0.00000000e+00 
3.12034535e+00 5.00000000e-01 0.00000000e+00 
3.07097673e+00 5.00000000e-01 0.00000000e+00 
2.99772024e+00 5.00000000e-01 0.00000000e+00 
2.90601563e+00 5.00000000e-01 0.00000000e+00 
2.80266523e+00 5.00000000e-01 0.00000000e+00 
2.69533467e+00 5.00000000e-01 0.00000000e+00 
2.59198427e+00 5.00000000e-01 0.00000000e+00 
2.50027966e+00 5.00000000e-01 0.00000000e+00 
2.42702317e+00 5.00000000e-01 0.00000000e+00 
2.37765455e+00 5.00000000e-01 0.00000000e+00 
2.35599995e+00 5.00000000e-01 0.00000000e+00 

        </DataArray>
      </Points>
      <Cells>
        <DataArray type="Int32" Name="connectivity" format="ascii">
0 1 13 12
12 13 25 24
24 25 37 36
36 37 49 48
48 49 61 60
60 61 73 72
72 73 85 84
84 85 97 96
96 97 109 108
108 109 121 120
120 121 133 132
1 2 14 13
13 14 26 25
25 26 38 37
37 38 50 49
49 50 62 61
61 62 74 73
73 74 86 85
85 86 98 97
97 98 110 109
109 110 122 121
121 122 134 133
2 3 15 14
14 15 27 26
26 27 39 38
38 39 51 50
50 51 63 62
62 63 75 74
74 75 87 86
86 87 99 98
98 99 111 110
110 111 123 122
122 123 135 134
3 4 16 15
15 16 28 27
27 28 40 39
39 40 52 51
51 52 64 63
63 64 76 75
75 76 88 87
87 88 100 99
99 100 112 111
111 112 124 123
123 124 136 135
4 5 17 16
16 17 29 28
28 29 41 40
40 41 53 52
52 53 65 64
64 65 77 76
76 77 89 88
88 89 101 100
100 101 113 112
112 113 125 124
124 125 137 136
5 6 18 17
17 18 30 29
29 30 42 41
41 42 54 53
53 54 66 65
65 66 78 77
77 78 90 89
89 90 102 101
101 102 114 113
113 114 126 125
125 126 138 137
6 7 19 18
18 19 31 30
30 31 43 42
42 43 55 54
54 55 67 66
66 67 79 78
78 79 91 90
90 91 103 102
102 103 115 114
114 115 127 126
126 127 139 138
7 8 20 19
19 20 32 31
31 32 44 43
43 44 56 55
55 56 68 67
67 68 80 79
79 80 92 91
91 92 104 103
103 104 116 115
115 116 128 127
127 128 140 139
8 9 21 20
20 21 33 32
32 33 45 44
44 45 57 56
56 57 69 68
68 69 81 80
80 81 93 92
92 93 105 104
104 105 117 116
116 117 129 128
128 129 141 140
9 10 22 21
21 22 34 33
33 34 46 45
45 46 58 57
57 58 70 69
69 70 82 81
81 82 94 93
93 94 106 105
105 106 118 117
117 118 130 129
129 130 142 141
10 11 23 22
22 23 35 34
34 35 47 46
46 47 59 58
58 59 71 70
70 71 83 82
82 83 95 94
94 95 107 106
106 107 119 118
118 119 131 130
130 131 143 142

        </DataArray>
        <DataArray type="Int32" Name="offsets" format="ascii">
4 8 12 16 20 24 28 32 36 40 44 48 52 56 60 64 68 72 76 80 84 88 92 96 100 104 108 112 116 120 124 128 132 136 140 144 148 152 156 160 164 168 172 176 180 184 188 192 196 200 204 208 212 216 220 224 228 232 236 240 244 248 252 256 260 264 268 272 276 280 284 288 292 296 300 304 308 312 316 320 324 328 332 336 340 344 348 352 356 360 364 368 372 376 380 384 388 392 396 400 404 408 412 416 420 424 428 432 436 440 444 448 452 456 460 464 468 472 476 480 484 
        </DataArray>
        <DataArray type="UInt8" Name="types" format="ascii">
9 9 9 9 9 9 9 9 9 9 9 9 9 9 9 9 9 9 9 9 9 9 9 9 9 9 9 9 9 9 9 9 9 9 9 9 9 9 9 9 9 9 9 9 9 9 9 9 9 9 9 9 9 9 9 9 9 9 9 9 9 9 9 9 9 9 9 9 9 9 9 9 9 9 9 9 9 9 9 9 9 9 9 9 9 9 9 9 9 9 9 9 9 9 9 9 9 9 9 9 9 9 9 9 9 9 9 9 9 9 9 9 9 9 9 9 9 9 9 9 9 
        </DataArray>
      </Cells>
      <PointData>
        <DataArray type="Float32" Name="u">
          3.60000000e-01 3.60000000e-01 3.60000000e-01 3.60000000e-01 3.60000000e-01 3.60000000e-01 3.60000000e-01 3.60000000e-01 3.60000000e-01 3.60000000e-01 3.60000000e-01 3.60000000e-01 3.73155863e-01 3.73155863e-01 3.73155863e-01 3.73155863e-01 3.73155863e-01 3.73155863e-01 3.73155863e-01 3.73155863e-01 3.73155863e-01 3.73155863e-01 3.73155863e-01 3.73155863e-01 4.02638114e-01 4.02638114e-01 4.02638114e-01 4.02638114e-01 4.02638114e-01 4.02638114e-01 4.02638114e-01 4.02638114e-01 4.02638114e-01 4.02638114e-01 4.02638114e-01 4.02638114e-01 4.45077175e-01 4.45077175e-01 4.45077175e-01 4.45077175e-01 4.45077175e-01 4.45077175e-01 4.45077175e-01 4.45077175e-01 4.45077175e-01 4.45077175e-01 4.45077175e-01 4.45077175e-01 4.95999905e-01 4.95999905e-01 4.95999905e-01 4.95999905e-01 4.95999905e-01 4.95999905e-01 4.95999905e-01 4.95999905e-01 4.95999905e-01 4.95999905e-01 4.95999905e-01 4.95999905e-01 5.50452627e-01 5.50452627e-01 5.50452627e-01 5.50452627e-01 5.50452627e-01 5.50452627e-01 5.50452627e-01 5.50452627e-01 5.50452627e-01 5.50452627e-01 5.50452627e-01 5.50452627e-01 6.03708271e-01 6.03708271e-01 6.03708271e-01 6.03708271e-01 6.03708271e-01 6.03708271e-01 6.03708271e-01 6.03708271e-01 6.03708271e-01 6.03708271e-01 6.03708271e-01 6.03708271e-01 6.51816972e-01 6.51816972e-01 6.51816972e-01 6.51816972e-01 6.51816972e-01 6.51816972e-01 6.51816972e-01 6.51816972e-01 6.51816972e-01 6.51816972e-01 6.51816972e-01 6.51816972e-01 6.91898875e-01 6.91898875e-01 6.91898875e-01 6.91898875e-01 6.91898875e-01 6.91898875e-01 6.91898875e-01 6.91898875e-01 6.91898875e-01 6.91898875e-01 6.91898875e-01 6.91898875e-01 7.22157049e-01 7.22157049e-01 7.22157049e-01 7.22157049e-01 7.22157049e-01 7.22157049e-01 7.22157049e-01 7.22157049e-01 7.22157049e-01 7.22157049e-01 7.22157049e-01 7.22157049e-01 7.41666579e-01 7.41666579e-01 7.41666579e-01 7.41666579e-01 7.41666579e-01 7.41666579e-01 7.41666579e-01 7.41666579e-01 7.41666579e-01 7.41666579e-01 7.41666579e-01 7.41666579e-01 7.50000000e-01 7.50000000e-01 7.50000000e-01 7.50000000e-01 7.50000000e-01 7.50000000e-01 7.50000000e-01 7.50000000e-01 7.50000000e-01 7.50000000e-01 7.50000000e-01 7.50000000e-01 
        </DataArray>
        <DataArray type="Float32" Name="v">